G2.5-PAMAM in water
51908
    1aaa     C1    1   3.742   4.788   6.079  0.4718 -0.4160 -0.2203
    1aaa     H1    2   3.641   4.814   6.044  0.2640  1.2037  1.4256
    1aaa     H2    3   3.732   4.758   6.184  0.6128 -2.1614 -0.6708
    1aaa     C2    4   3.825   4.918   6.079  0.4520  0.2517  0.0280
    1aaa     H3    5   3.921   4.896   6.127  0.2787 -1.7047 -0.4324
    1aaa     H4    6   3.847   4.943   5.974  1.8580 -0.7829  0.0407
    1aaa     N1    7   3.758   5.034   6.150  0.9326  0.3448 -0.2073
    1aaa     N2    8   3.815   4.681   6.011 -0.0048  0.6854  0.2403
    1aaa     C3    9   3.809   4.700   5.865  0.1238  0.1232  0.6676
    1aaa     H5   10   3.762   4.792   5.830  1.8409  0.5165 -0.7227
    1aaa     H6   11   3.758   4.623   5.805 -0.9493  1.1502  0.2285
    1aaa     C4   12   3.798   4.540   6.048 -0.9833 -0.3143 -0.1993
    1aaa     H7   13   3.704   4.511   6.001 -0.6944 -0.6183 -0.5963
    1aaa     H8   14   3.875   4.472   6.009 -1.3761 -1.3510  0.7892
    1aaa     C5   15   3.727   5.008   6.291  0.7326  0.3399 -0.2263
    1aaa     H9   16   3.694   4.906   6.315 -0.2839  0.6710 -0.1587
    1aaa    H10   17   3.819   5.025   6.349  0.0630  0.3899  0.8620
    1aaa     C6   18   3.826   5.169   6.137 -0.3052  0.5005  0.1524
    1aaa    H11   19   3.930   5.155   6.168 -0.9002 -0.3588  1.8638
    1aaa    H12   20   3.782   5.253   6.193 -0.4278  0.7025 -0.2452
    1aaa     C7   21   3.631   5.113   6.346  0.2435 -0.7387  0.0923
    1aaa    H13   22   3.674   5.214   6.339 -0.8894 -0.3067 -1.2610
    1aaa    H14   23   3.544   5.105   6.279  1.4502  0.0868 -1.6328
    1aaa     C8   24   3.823   5.210   5.989  0.2381 -0.7304  0.0458
    1aaa    H15   25   3.859   5.136   5.915  0.4933 -1.4534  0.8820
    1aaa    H16   26   3.718   5.223   5.961 -0.5891 -0.9490  2.8052
    1aaa     C9   27   3.807   4.505   6.196  0.4750 -0.4508  0.3369
    1aaa    H17   28   3.892   4.560   6.237 -0.9871  0.5187  2.2413
    1aaa    H18   29   3.727   4.544   6.260  0.0819  1.5721 -1.2725
    1aaa    C10   30   3.949   4.706   5.802 -0.3101  0.2452  0.1214
    1aaa    H19   31   4.013   4.764   5.870 -0.9052  1.3608 -0.2388
    1aaa    H20   32   3.981   4.601   5.803 -1.6159 -0.2017 -1.2675
    1aaa    C11   33   3.829   4.361   6.212 -0.4881  0.4594 -0.1463
    1aaa    C12   34   3.946   4.764   5.663  0.9974 -0.5690 -0.2679
    1aaa    C13   35   3.584   5.100   6.489  0.1123  0.3711 -0.6760
    1aaa    C14   36   3.890   5.348   5.981  0.9630  0.1717  0.5063
    1aaa     O1   37   3.744   4.278   6.185 -0.2497 -0.4367  0.7367
    1aaa     O2   38   3.664   5.088   6.578 -0.6465  0.2582  0.2783
    1aaa     O3   39   3.887   5.436   6.064  0.3818 -0.2699  0.3698
    1aaa     O4   40   3.846   4.779   5.598  0.2228 -0.4332  0.4370
    2bbb     C1   41   3.923   4.220   6.500  0.5264 -0.6439  0.4784
    2bbb     H1   42   3.817   4.195   6.506 -0.1879  2.0371  0.3314
    2bbb     H2   43   3.917   4.328   6.518 -1.9324 -0.4184 -1.1848
    2bbb     C2   44   3.966   4.201   6.353  0.2249 -0.0016 -0.6460
    2bbb     H3   45   4.073   4.177   6.346  0.4691  0.9849 -0.4885
    2bbb     H4   46   3.915   4.120   6.299  3.1341 -0.0534 -3.5773
    2bbb     N1   47   4.010   4.140   6.588  0.2829 -0.0590 -0.0556
    2bbb     C3   48   4.006   3.997   6.562  0.1347 -0.1922 -0.2665
    2bbb     H5   49   4.007   3.982   6.453  0.2463  0.4365 -0.3529
    2bbb     H6   50   3.911   3.953   6.593 -0.5159  0.8445 -0.7272
    2bbb     C4   51   3.967   4.172   6.721  0.0572  0.1742  0.6687
    2bbb     H7   52   3.857   4.170   6.730 -0.2546 -0.6846 -2.2945
    2bbb     H8   53   3.997   4.092   6.789  0.2253  0.6731  1.1848
    2bbb     C5   54   4.032   4.301   6.767  0.5745 -0.5024 -0.2912
    2bbb     H9   55   4.139   4.296   6.790  0.3895 -1.5919  0.3949
    2bbb    H10   56   4.012   4.382   6.695 -3.4986 -1.7447 -0.7634
    2bbb     C6   57   4.128   3.937   6.621  0.0285 -0.5948  0.4524
    2bbb    H11   58   4.209   4.009   6.603 -0.0536 -0.3081  1.2226
    2bbb    H12   59   4.130   3.919   6.729  0.7743  0.4736  0.6349
    2bbb     C7   60   3.967   4.347   6.892  0.0246 -0.7247  0.2604
    2bbb     C8   61   4.170   3.808   6.548  0.1700 -0.1195  0.2545
    2bbb     O1   62   4.027   4.337   6.997  0.2159 -0.4085 -0.5506
    2bbb     O2   63   4.248   3.810   6.455 -0.4107  0.4087  0.8204
    2bbb     N4   64   3.946   4.325   6.278 -0.6125  0.3054  0.2647
    2bbb    H21   65   4.004   4.403   6.304  0.6370 -1.7419  4.3519
    3bbb     C1   66   4.220   4.954   5.459  0.0947  0.4550 -0.1291
    3bbb     H1   67   4.303   4.884   5.444  0.0369  0.5378 -0.8372
    3bbb     H2   68   4.221   5.016   5.550  1.7809 -1.6615  1.4097
    3bbb     C2   69   4.094   4.867   5.488  0.5876 -0.0244 -0.6283
    3bbb     H3   70   4.010   4.933   5.465 -0.4692 -0.5719  1.4421
    3bbb     H4   71   4.088   4.802   5.400  0.9369  3.1664 -3.2254
    3bbb     N1   72   4.202   5.036   5.338 -0.1193 -0.8050 -0.5628
    3bbb     C3   73   4.211   4.956   5.214 -0.1761  0.0823 -0.2239
    3bbb     H5   74   4.241   4.852   5.232  0.0508  0.0494 -0.7680
    3bbb     H6   75   4.283   4.994   5.140 -0.0794  0.9293  0.3042
    3bbb     C4   76   4.307   5.139   5.335 -0.1397  0.3858  0.6551
    3bbb     H7   77   4.327   5.162   5.440  1.6239 -0.5718  0.5687
    3bbb     H8   78   4.401   5.099   5.294 -1.6264 -1.4707 -1.1965
    3bbb     C5   79   4.246   5.247   5.253  0.6221  0.1251  0.2645
    3bbb     H9   80   4.226   5.222   5.148  0.1104 -0.4652  0.4987
    3bbb    H10   81   4.153   5.284   5.298 -1.1257 -0.7886 -2.3664
    3bbb     C6   82   4.082   4.973   5.138  0.5403 -0.3760  0.0545
    3bbb    H11   83   3.996   4.943   5.198  0.0114  2.6179  0.9537
    3bbb    H12   84   4.067   5.076   5.102 -0.0675 -0.9573 -1.4449
    3bbb     C7   85   4.336   5.362   5.253 -0.0245 -0.1918 -1.2815
    3bbb     C8   86   4.093   4.908   5.003 -0.3411  0.3138  0.3415
    3bbb     O1   87   4.426   5.383   5.337 -0.2499 -0.2716 -0.1963
    3bbb     O2   88   4.200   4.878   4.950 -0.2467 -0.1956 -0.7319
    3bbb     N4   89   4.070   4.804   5.618 -0.0862  0.6178  0.3188
    3bbb    H21   90   4.144   4.791   5.685 -0.2499 -0.5330  0.2916
    4bbb     C1   91   3.353   4.907   6.634  0.4789  0.4632 -0.3954
    4bbb     H1   92   3.319   4.867   6.731 -1.8396  0.1534 -1.2833
    4bbb     H2   93   3.447   4.854   6.615 -0.3983 -0.8622 -1.1939
    4bbb     C2   94   3.381   5.054   6.632  0.2650  0.3902 -0.4051
    4bbb     H3   95   3.279   5.094   6.637  1.1300  2.5879  0.9470
    4bbb     H4   96   3.436   5.083   6.723  0.5914  0.6380 -0.6800
    4bbb     N1   97   3.260   4.872   6.527  0.4581  0.1782  0.2021
    4bbb     C3   98   3.121   4.869   6.575  0.0894 -0.0011  0.0342
    4bbb     H5   99   3.099   4.968   6.617  2.6991  0.1430  1.2641
    4bbb     H6  100   3.106   4.792   6.652 -1.5720  1.5903  1.3874
    4bbb     C4  101   3.303   4.753   6.447  0.0752 -0.8638  0.2188
    4bbb     H7  102   3.315   4.667   6.514 -0.0958  1.0843  2.9202
    4bbb     H8  103   3.234   4.745   6.363  1.0665 -0.0248 -0.7110
    4bbb     C5  104   3.436   4.779   6.374 -0.1853  0.1448  1.1558
    4bbb     H9  105   3.432   4.874   6.321 -1.1319  0.1130  1.1541
    4bbb    H10  106   3.517   4.775   6.448  0.4359 -0.5962  0.4662
    4bbb     C6  107   3.021   4.850   6.459 -0.5032 -0.4389 -1.2015
    4bbb    H11  108   3.049   4.889   6.361 -2.0713 -0.0689 -1.5388
    4bbb    H12  109   3.015   4.743   6.436  2.3054 -0.3985 -2.5392
    4bbb     C7  110   3.452   4.661   6.288  0.5515 -0.2086 -0.2385
    4bbb     C8  111   2.887   4.906   6.494  0.3012  0.7120 -0.0911
    4bbb     O1  112   3.472   4.550   6.331  0.3007 -0.0077  0.1173
    4bbb     O2  113   2.789   4.833   6.527 -0.0802 -0.6060 -0.5528
    4bbb     N4  114   3.449   5.091   6.507  0.4014 -0.2170 -0.1087
    4bbb    H21  115   3.387   5.095   6.428 -1.3310 -2.0374  1.0610
    5bbb     C1  116   4.048   5.509   5.663  0.0057 -0.2280 -0.2664
    5bbb     H1  117   4.035   5.614   5.634 -1.2029  1.2604  4.7006
    5bbb     H2  118   3.977   5.447   5.606 -0.5774 -0.0745  0.2806
    5bbb     C2  119   3.994   5.504   5.810  0.3175 -0.4880 -0.9089
    5bbb     H3  120   4.063   5.543   5.886 -0.2534 -0.1760 -0.5425
    5bbb     H4  121   3.905   5.569   5.815  2.0692  2.0012 -0.2144
    5bbb     N1  122   4.189   5.476   5.655  0.6621  0.0446  0.5714
    5bbb     C3  123   4.258   5.534   5.544  0.2240  0.0043 -0.4069
    5bbb     H5  124   4.202   5.512   5.453  1.4047  2.2553 -1.7713
    5bbb     H6  125   4.365   5.512   5.534 -0.1528 -1.3405 -1.8058
    5bbb     C4  126   4.214   5.337   5.673 -0.3492 -0.1268 -0.5697
    5bbb     H7  127   4.164   5.299   5.763  1.6984  3.3635  2.3262
    5bbb     H8  128   4.176   5.288   5.582 -2.2938 -1.4008  0.8659
    5bbb     C5  129   4.363   5.318   5.689  0.2146  0.0138 -0.1777
    5bbb     H9  130   4.413   5.307   5.592  0.2695 -0.5333 -0.0896
    5bbb    H10  131   4.407   5.399   5.749 -2.8792  0.5149  1.6224
    5bbb     C6  132   4.264   5.685   5.555  1.0092 -0.4110 -0.0089
    5bbb    H11  133   4.274   5.733   5.457 -1.8956  0.6670  0.1278
    5bbb    H12  134   4.175   5.736   5.595  0.3958 -0.9179 -0.7099
    5bbb     C7  135   4.386   5.193   5.776 -0.2747  0.1649  0.5936
    5bbb     C8  136   4.373   5.735   5.644 -0.7626  0.0358 -1.2052
    5bbb     O1  137   4.316   5.096   5.775  0.7250 -0.0457 -0.6402
    5bbb     O2  138   4.466   5.809   5.612  0.0123 -0.3749  0.2061
    5bbb     N4  139   3.942   5.370   5.857 -0.5522 -0.0736  0.2355
    5bbb    H21  140   3.933   5.299   5.786  0.3508 -0.3014  0.3375
    6bbb     C1  141   3.605   4.435   6.968 -1.0825  0.4786  0.0055
    6bbb     H1  142   3.534   4.408   7.047 -1.2651  0.3822 -0.1879
    6bbb     H2  143   3.566   4.374   6.885 -0.1022  1.0328 -0.8891
    6bbb     C2  144   3.748   4.392   7.002  0.3896 -0.5600  0.2498
    6bbb     H3  145   3.788   4.460   7.079 -1.2167  1.5869 -0.7160
    6bbb     H4  146   3.734   4.293   7.047 -1.1339  0.0730  1.2423
    6bbb     N1  147   3.579   4.577   6.936 -0.1156  0.3691  0.1691
    6bbb     C3  148   3.630   4.679   7.029 -0.6624  0.0294  0.6744
    6bbb     H5  149   3.714   4.645   7.091 -0.1929  1.6291  0.9426
    6bbb     H6  150   3.553   4.717   7.098 -3.6355 -1.8178 -1.3819
    6bbb     C4  151   3.432   4.605   6.929  0.2472  0.2022 -0.2523
    6bbb     H7  152   3.388   4.581   7.026 -0.0113  1.4636 -0.0430
    6bbb     H8  153   3.410   4.710   6.907  0.3976  1.1335  3.4293
    6bbb     C5  154   3.360   4.514   6.820 -0.1991  0.1237  0.4641
    6bbb     H9  155   3.404   4.526   6.720 -1.2019 -0.5847 -0.0883
    6bbb    H10  156   3.369   4.408   6.848 -0.9347 -0.5246 -1.5005
    6bbb     C6  157   3.684   4.804   6.952  0.8987 -0.2061 -0.9186
    6bbb    H11  158   3.771   4.777   6.890  1.2435  1.4845 -1.2192
    6bbb    H12  159   3.602   4.847   6.893  2.0015  0.8324 -1.7418
    6bbb     C7  160   3.217   4.558   6.801  0.0972 -0.6326  0.1323
    6bbb     C8  161   3.723   4.901   7.052  0.4307 -0.0742  0.3489
    6bbb     O1  162   3.175   4.666   6.843  0.2558  0.3298 -0.5011
    6bbb     O2  163   3.651   4.949   7.136  0.3889  0.6241 -0.0405
    6bbb     N4  164   3.835   4.383   6.879  0.9467  0.2134 -0.7042
    6bbb    H21  165   3.805   4.405   6.785  0.9837  3.2482 -0.0936
    7bbb     C1  166   3.940   3.544   6.462  0.1425  0.4573  0.3484
    7bbb     H1  167   3.893   3.515   6.556  0.5895  0.9264  0.7246
    7bbb     H2  168   3.937   3.462   6.390  1.9857  0.0032  0.7249
    7bbb     C2  169   4.088   3.580   6.499 -0.2822 -0.0866  0.3813
    7bbb     H3  170   4.127   3.486   6.542 -0.7408 -1.1247 -1.3570
    7bbb     H4  171   4.145   3.589   6.406 -0.4455 -4.1490 -0.2970
    7bbb     N1  172   3.862   3.661   6.405  0.0527  0.1310 -0.1801
    7bbb     C3  173   3.725   3.621   6.383 -0.8276 -1.1147 -0.3475
    7bbb     H5  174   3.695   3.562   6.470  0.1382 -1.1527 -0.0208
    7bbb     H6  175   3.710   3.563   6.291  1.4747 -1.2932 -0.6744
    7bbb     C4  176   3.925   3.734   6.294 -0.2059 -0.0912 -0.0271
    7bbb     H7  177   3.861   3.818   6.264  1.3407  0.9445 -0.5556
    7bbb     H8  178   4.024   3.772   6.324  0.4043 -1.5361 -0.1402
    7bbb     C5  179   3.930   3.643   6.172  0.5587  0.3717 -0.1330
    7bbb     H9  180   3.988   3.551   6.182  4.6462  2.5648 -1.3460
    7bbb    H10  181   3.827   3.621   6.140  0.9919 -0.8403 -0.7588
    7bbb     C6  182   3.641   3.744   6.393 -0.2760  0.0390  0.2170
    7bbb    H11  183   3.674   3.802   6.480  0.9854 -0.0506 -0.1821
    7bbb    H12  184   3.654   3.805   6.303 -0.3623  0.8673  0.7545
    7bbb     C7  185   3.984   3.720   6.057  0.8121  0.3116  0.0784
    7bbb     C8  186   3.498   3.702   6.410 -0.3163  0.6893  0.0111
    7bbb     O1  187   3.919   3.744   5.955  0.1228 -0.2072 -0.0042
    7bbb     O2  188   3.461   3.585   6.427  0.1251  0.2388 -0.3261
    7bbb     N4  189   4.105   3.698   6.586 -0.3981 -0.0263 -0.2957
    7bbb    H21  190   4.049   3.709   6.669  0.2501  1.3700 -0.0192
    8bbb     C1  191   4.436   5.645   5.043  0.3294 -0.4182  0.5925
    8bbb     H1  192   4.534   5.606   5.073 -0.0258 -1.3329  0.5979
    8bbb     H2  193   4.429   5.754   5.039 -0.7883 -0.4741  1.0164
    8bbb     C2  194   4.345   5.601   5.158  0.4662  0.4831  0.2978
    8bbb     H3  195   4.398   5.615   5.253 -0.0597 -3.0326  1.2772
    8bbb     H4  196   4.254   5.660   5.144  1.1548  1.3963 -0.4315
    8bbb     N1  197   4.391   5.587   4.911  0.6876 -0.4165  0.0784
    8bbb     C3  198   4.485   5.607   4.794 -0.5145  0.8005 -0.4676
    8bbb     H5  199   4.519   5.711   4.793 -0.7747  0.8910  0.1193
    8bbb     H6  200   4.432   5.589   4.699 -2.8734  0.4992  0.8318
    8bbb     C4  201   4.255   5.624   4.875 -0.2953  0.5990  0.4261
    8bbb     H7  202   4.190   5.631   4.964  3.4435  0.6309  3.4275
    8bbb     H8  203   4.256   5.719   4.819  0.6153  1.2050  1.4191
    8bbb     C5  204   4.195   5.532   4.772  0.4444  0.4594  0.1876
    8bbb     H9  205   4.096   5.577   4.758  0.3486  0.3038  0.3527
    8bbb    H10  206   4.253   5.516   4.681  0.7299  0.7217  0.3182
    8bbb     C6  207   4.601   5.511   4.812  0.5139 -0.6926 -0.8202
    8bbb    H11  208   4.664   5.553   4.891 -0.9492  0.3877 -0.1751
    8bbb    H12  209   4.557   5.414   4.838  1.2600 -0.8257 -0.0079
    8bbb     C7  210   4.171   5.400   4.837  0.0788  0.5960 -0.8505
    8bbb     C8  211   4.683   5.498   4.687 -0.2539  0.2831 -0.5875
    8bbb     O1  212   4.114   5.385   4.941 -0.5477 -0.0538 -0.1497
    8bbb     O2  213   4.658   5.563   4.588  0.3641  0.0557  0.6754
    8bbb     N4  214   4.297   5.460   5.159 -0.1646 -0.5065 -0.3112
    8bbb    H21  215   4.233   5.432   5.086 -0.5630 -0.1377 -0.1124
    9bbb     C1  216   3.944   4.748   4.740  0.4374  0.7035 -0.5044
    9bbb     H1  217   4.018   4.679   4.782 -0.2335  0.5492  0.4613
    9bbb     H2  218   3.953   4.744   4.630  0.9329  0.8258 -0.4676
    9bbb     C2  219   3.974   4.898   4.786  0.2891  0.5127 -0.0220
    9bbb     H3  220   4.067   4.938   4.743  2.3727 -1.8850  1.8824
    9bbb     H4  221   3.891   4.953   4.741 -1.8333 -0.9261  1.9212
    9bbb     N1  222   3.808   4.708   4.780  0.4203  0.6141 -0.0512
    9bbb     C3  223   3.714   4.755   4.674 -0.1589 -0.4423 -0.6158
    9bbb     H5  224   3.707   4.685   4.590 -0.5397 -1.7185  0.4322
    9bbb     H6  225   3.744   4.857   4.647 -1.2154  0.1897  0.4738
    9bbb     C4  226   3.799   4.559   4.782  1.0839  0.2489 -0.2160
    9bbb     H7  227   3.693   4.532   4.785  0.6519  1.7272 -0.8473
    9bbb     H8  228   3.830   4.520   4.685 -0.2596  1.7326 -1.2971
    9bbb     C5  229   3.872   4.499   4.896 -0.2475  0.2939 -0.2630
    9bbb     H9  230   3.979   4.525   4.894 -0.5283  1.7188  1.0299
    9bbb    H10  231   3.828   4.547   4.985 -1.3423 -0.1433 -0.5520
    9bbb     C6  232   3.573   4.776   4.729  0.0335  0.0335  0.2189
    9bbb    H11  233   3.512   4.686   4.733  0.5016 -0.3580 -1.0216
    9bbb    H12  234   3.584   4.828   4.825 -0.4860  0.9669 -0.2061
    9bbb     C7  235   3.840   4.357   4.919 -0.4906  0.2670  0.6859
    9bbb     C8  236   3.499   4.866   4.637 -0.5255  0.5968  1.0290
    9bbb     O1  237   3.882   4.274   4.842 -0.3142  0.5501  0.1484
    9bbb     O2  238   3.460   4.820   4.528 -0.0799 -1.0464 -0.0735
    9bbb     N4  239   3.975   4.923   4.931 -0.0283 -0.0815  0.3555
    9bbb    H21  240   3.886   4.939   4.975 -0.9770 -0.1538 -1.4468
   10bbb     C1  241   3.371   4.623   5.922  0.4418  0.2887  0.6005
   10bbb     H1  242   3.361   4.532   5.861 -2.9162  1.6135 -1.0873
   10bbb     H2  243   3.459   4.677   5.885  1.7448 -1.4923  0.9474
   10bbb     C2  244   3.404   4.579   6.054  0.3267  0.1168 -0.1220
   10bbb     H3  245   3.325   4.517   6.097 -0.5717  0.4287 -1.2793
   10bbb     H4  246   3.496   4.520   6.044  1.3881  1.6552  0.2063
   10bbb     N1  247   3.247   4.706   5.906  0.0821 -0.7013  0.0474
   10bbb     C3  248   3.231   4.728   5.759 -0.6689  0.3499 -0.2826
   10bbb     H5  249   3.202   4.631   5.717  1.7298 -0.8704  0.6797
   10bbb     H6  250   3.328   4.750   5.711 -0.2846 -1.4873 -0.4068
   10bbb     C4  251   3.122   4.652   5.973 -0.8428 -0.5383  0.5843
   10bbb     H7  252   3.031   4.665   5.913 -1.1090 -1.6281  0.7235
   10bbb     H8  253   3.134   4.543   5.983  0.2114 -0.3372  1.7608
   10bbb     C5  254   3.097   4.723   6.102  0.0793 -0.7956  0.2390
   10bbb     H9  255   3.187   4.770   6.145  0.1274 -1.5815  1.0162
   10bbb    H10  256   3.025   4.803   6.083  1.1452  0.9033  2.7836
   10bbb     C6  257   3.127   4.832   5.734 -0.3395  0.5443 -0.3901
   10bbb    H11  258   3.027   4.811   5.774  0.2338  0.2694  0.9411
   10bbb    H12  259   3.160   4.924   5.783  0.0079  0.6907 -0.8921
   10bbb     C7  260   3.045   4.624   6.195  0.1152 -0.5715 -0.3859
   10bbb     C8  261   3.111   4.862   5.584  0.3322  0.4324 -0.1149
   10bbb     O1  262   3.111   4.535   6.242  0.0990  0.0282  0.1225
   10bbb     O2  263   3.171   4.797   5.500 -0.1411  0.3840 -0.2359
   10bbb     N4  264   3.438   4.685   6.153  0.3149  0.3661 -0.4054
   10bbb    H21  265   3.447   4.782   6.127 -2.8495  0.7041 -0.6347
   11bbb     C1  266   2.739   5.187   6.623  0.0631  0.3312  0.5541
   11bbb     H1  267   2.815   5.262   6.648 -1.0815  0.8913  2.5635
   11bbb     H2  268   2.737   5.108   6.699 -1.2686 -0.4841 -0.2837
   11bbb     C2  269   2.762   5.125   6.484 -0.4461 -0.6800  0.6874
   11bbb     H3  270   2.675   5.068   6.450  0.1394 -0.7182 -0.8209
   11bbb     H4  271   2.784   5.208   6.416 -1.5203  1.1445  2.4595
   11bbb     N1  272   2.603   5.250   6.609  0.1045 -0.1442 -0.1320
   11bbb     C3  273   2.589   5.375   6.528 -0.1760  0.0778 -0.4102
   11bbb     H5  274   2.646   5.368   6.434 -0.2033 -2.8113 -0.3071
   11bbb     H6  275   2.625   5.466   6.577  1.2899 -1.1639  0.9248
   11bbb     C4  276   2.566   5.283   6.747  0.2373  0.4035  0.6889
   11bbb     H7  277   2.462   5.320   6.747 -0.3541 -1.1972  0.3872
   11bbb     H8  278   2.562   5.190   6.804  0.9765 -0.0623 -0.0028
   11bbb     C5  279   2.654   5.387   6.821  0.0845  0.2129 -0.0994
   11bbb     H9  280   2.745   5.335   6.854 -0.7466 -0.3592  1.3644
   11bbb    H10  281   2.691   5.473   6.764 -1.3651 -0.0887 -1.5718
   11bbb     C6  282   2.443   5.388   6.490 -0.2143  0.0932  0.1516
   11bbb    H11  283   2.395   5.291   6.474  0.5537 -0.9210  3.2379
   11bbb    H12  284   2.400   5.441   6.576 -1.4692  1.2274 -1.1334
   11bbb     C7  285   2.583   5.442   6.943 -0.5547 -0.8093  0.1929
   11bbb     C8  286   2.436   5.486   6.379 -0.0051  0.3999 -0.2267
   11bbb     O1  287   2.507   5.376   7.011 -0.5208 -0.6526  0.1406
   11bbb     O2  288   2.499   5.592   6.376 -0.5761  0.0181  0.0933
   11bbb     N4  289   2.885   5.043   6.488  0.1894  0.2330  0.0615
   11bbb    H21  290   2.974   5.082   6.459  0.8096 -1.2259 -0.0754
   12bbb     C1  291   4.653   5.000   5.881 -0.3589  0.5141  0.0498
   12bbb     H1  292   4.729   5.043   5.815  0.4654  0.0496  0.6789
   12bbb     H2  293   4.588   4.941   5.814  0.3475 -1.5400  1.0770
   12bbb     C2  294   4.560   5.101   5.940 -0.1612 -0.4635 -0.4386
   12bbb     H3  295   4.472   5.042   5.969 -0.2423 -0.6105 -0.9710
   12bbb     H4  296   4.600   5.164   6.020  1.7660 -2.1482  0.0133
   12bbb     N1  297   4.721   4.916   5.974 -0.2993 -0.4055  0.9721
   12bbb     C3  298   4.839   4.985   6.028  0.5534  0.1578 -0.3065
   12bbb     H5  299   4.800   5.086   6.041 -1.9237 -0.8399  0.5226
   12bbb     H6  300   4.920   4.979   5.953 -0.0945 -2.5615 -0.9110
   12bbb     C4  301   4.757   4.788   5.915  0.0557 -0.3030  0.8959
   12bbb     H7  302   4.793   4.808   5.813 -2.1650 -1.2383 -0.1313
   12bbb     H8  303   4.834   4.748   5.982 -0.1824  1.5358  2.3362
   12bbb     C5  304   4.640   4.688   5.928  0.3146 -0.1621  0.8029
   12bbb     H9  305   4.611   4.658   6.029 -1.1611 -3.1877 -0.3933
   12bbb    H10  306   4.546   4.728   5.889 -0.3672  0.2363  2.7463
   12bbb     C6  307   4.879   4.932   6.163 -0.1503  0.6527 -0.6626
   12bbb    H11  308   4.790   4.941   6.226 -0.6076  1.1963 -1.3762
   12bbb    H12  309   4.918   4.829   6.163 -0.2562  0.6021  0.1698
   12bbb     C7  310   4.678   4.561   5.852  0.0766 -0.8002 -0.7080
   12bbb     C8  311   4.988   5.019   6.212 -0.5136 -0.4359  0.0595
   12bbb     O1  312   4.733   4.474   5.914 -0.1037  0.3098 -0.0930
   12bbb     O2  313   5.103   4.999   6.172  0.1167  0.3966  0.1405
   12bbb     N4  314   4.515   5.193   5.831 -0.5326  0.7849  0.0193
   12bbb    H21  315   4.579   5.267   5.803  0.9794 -0.3345  0.4141
   13bbb     C1  316   4.438   5.616   5.997  0.7500  0.5323  0.2535
   13bbb     H1  317   4.509   5.662   6.067  1.1105 -1.9734  1.6575
   13bbb     H2  318   4.469   5.511   6.003  0.3381  0.4104  0.2276
   13bbb     C2  319   4.462   5.702   5.865 -0.4202 -0.2351  0.5151
   13bbb     H3  320   4.460   5.809   5.893 -0.0321 -0.2446  0.5823
   13bbb     H4  321   4.566   5.684   5.835 -0.7940 -1.2964 -0.1653
   13bbb     N1  322   4.298   5.617   6.041 -0.0754 -0.4627  0.9963
   13bbb     C3  323   4.272   5.752   6.097  0.0862 -0.1174 -0.1277
   13bbb     H5  324   4.306   5.834   6.032  0.2257  0.8187  1.0895
   13bbb     H6  325   4.316   5.762   6.196  1.8516  0.6861 -0.9475
   13bbb     C4  326   4.267   5.510   6.139 -0.4004  0.2445 -0.3847
   13bbb     H7  327   4.341   5.499   6.218 -3.7865 -1.3358  2.8737
   13bbb     H8  328   4.166   5.531   6.177 -0.3643  1.8151 -1.0473
   13bbb     C5  329   4.259   5.377   6.076 -0.1779 -0.2612 -0.1242
   13bbb     H9  330   4.169   5.371   6.012 -1.3117 -0.1159  1.3950
   13bbb    H10  331   4.339   5.347   6.007  0.0700 -0.5469  0.2852
   13bbb     C6  332   4.121   5.778   6.096 -0.2002 -0.2595  1.1223
   13bbb    H11  333   4.081   5.788   5.995  2.0136  1.9194  0.3568
   13bbb    H12  334   4.060   5.696   6.136 -0.0732 -0.3952  1.0386
   13bbb     C7  335   4.231   5.276   6.181 -0.3010 -0.3986  0.3281
   13bbb     C8  336   4.087   5.910   6.157 -0.3809 -0.2110 -0.3818
   13bbb     O1  337   4.308   5.187   6.212  0.1041  0.0720 -0.8310
   13bbb     O2  338   4.149   6.011   6.134 -0.5595  0.0122  0.8801
   13bbb     N4  339   4.362   5.675   5.767 -0.1814 -0.9307 -0.0431
   13bbb    H21  340   4.274   5.630   5.789 -0.4748 -1.2190 -1.6894
   14ccc     N1  341   3.134   4.477   6.728  0.1922  0.9339  0.0226
   14ccc     H4  342   3.179   4.399   6.683 -0.3663 -0.5453  1.9231
   14ccc     C3  343   2.992   4.500   6.687 -0.8205 -0.0127 -0.4087
   14ccc     H5  344   2.934   4.528   6.775 -1.6659  1.1832 -1.3044
   14ccc     C4  345   2.918   4.368   6.649  0.3470  0.2126 -0.7273
   14ccc     H6  346   2.974   4.580   6.613 -4.0792 -0.5431 -0.3341
   14ccc     H7  347   2.989   4.285   6.643  0.7985  0.3354  1.8409
   14ccc     H8  348   2.864   4.378   6.554  0.8674  0.6337 -0.9835
   14ccc     N2  349   2.823   4.335   6.758  0.0693  0.1186  0.4176
   14ccc     C5  350   2.905   4.254   6.860  0.4057 -0.3209 -0.1794
   14ccc     C6  351   2.702   4.261   6.707 -0.5030 -0.3446  0.8178
   14ccc     H9  352   2.731   4.177   6.643 -2.4169 -1.0575  0.8437
   14ccc     C7  353   2.616   4.356   6.630 -0.1884 -0.6926  0.5891
   14ccc    H10  354   2.656   4.222   6.798 -0.7486 -0.3781  0.6795
   14ccc    H11  355   2.668   4.448   6.599 -0.5032 -0.5456  0.4953
   14ccc    H12  356   2.539   4.386   6.702  1.1498  3.5041  0.5889
   14ccc     C8  357   2.547   4.281   6.514 -0.2342  0.9641 -0.2858
   14ccc     O2  358   2.582   4.179   6.457  0.1900 -0.0951  0.2916
   14ccc    H13  359   3.008   4.291   6.867  0.4559 -0.4642 -0.1656
   14ccc    H14  360   2.903   4.146   6.840 -2.5994 -0.2900 -0.4026
   14ccc     C9  361   2.847   4.274   7.004 -0.6717  0.0048  0.4030
   14ccc    H15  362   2.907   4.207   7.067  0.2981 -1.3088 -1.8258
   14ccc    H16  363   2.745   4.234   6.999 -0.7746  0.3854 -0.9862
   14ccc    C10  364   2.849   4.411   7.049 -0.2214 -0.3614 -0.5686
   14ccc     O4  365   2.926   4.469   7.117 -0.4233  0.3323  0.2773
   14ccc    C11  366   2.234   4.056   6.210  0.4651 -0.5529 -0.2808
   14ccc    C12  367   2.175   4.058   6.353 -0.4968  0.8346  0.4847
   14ccc    H17  368   2.319   3.987   6.213  0.2615 -0.7926  0.0230
   14ccc    C13  369   2.275   4.129   6.442 -0.3937 -0.9264 -0.1164
   14ccc    C14  370   2.331   4.267   6.385 -0.5283 -0.9315  0.2595
   14ccc    C15  371   2.382   4.245   6.234 -0.4515 -0.1420 -0.4582
   14ccc    H18  372   2.247   4.338   6.380  1.4916  1.5164 -0.8013
   14ccc    H19  373   2.363   4.066   6.461  0.4178  0.0569 -0.4702
   14ccc    H20  374   2.464   4.171   6.239 -2.2077 -2.1707  4.3354
   14ccc     O1  375   2.410   4.369   6.164  0.0954  0.1563  0.2036
   14ccc     O6  376   2.208   4.162   6.567 -0.0982  0.1190 -0.4755
   14ccc    C16  377   2.138   3.999   6.108  0.2429  0.3963  0.1639
   14ccc    H21  378   2.162   4.079   6.586  2.2061 -0.9560  0.9044
   14ccc    H22  379   2.395   4.421   6.510 -1.9376 -0.6513 -0.4062
   14ccc    H23  380   2.103   3.896   6.128 -1.5253  0.6218 -1.4575
   14ccc    H24  381   2.192   3.986   6.013 -0.9970 -0.7701 -0.4223
   14ccc     O7  382   2.022   4.081   6.085 -0.3234 -0.2085 -0.5310
   14ccc    H25  383   2.059   4.167   6.110  0.7119 -1.1317  1.3028
   14ccc     O8  384   2.274   4.186   6.167  0.1242  0.7198  0.2602
   14ccc    H26  385   2.326   4.383   6.116 -0.6639  0.3907  1.5295
   14ccc    H27  386   2.080   4.114   6.349 -0.3983  0.9220 -0.9096
   14ccc     O9  387   2.158   3.929   6.410  0.0563  0.2502 -0.6931
   14ccc    H28  388   2.069   3.896   6.389  0.8077 -2.0499 -0.5974
   14ccc     N3  389   2.430   4.330   6.479 -0.0905 -0.2730  0.4387
   14ccc    C17  390   2.769   4.921   7.066 -0.7461 -0.1853 -0.5891
   14ccc    C18  391   2.745   4.868   6.918  0.2912 -0.5849 -0.1540
   14ccc    H29  392   2.877   4.930   7.084 -0.4654 -1.0647 -1.6988
   14ccc    C19  393   2.780   4.718   6.906  0.0712  0.5224 -0.3958
   14ccc    C20  394   2.718   4.632   7.019 -0.8427 -0.7720 -0.3165
   14ccc    C21  395   2.750   4.705   7.155  0.2784  0.8357 -0.3240
   14ccc    H30  396   2.609   4.642   7.013 -1.0217  1.1676  3.3737
   14ccc    H31  397   2.888   4.698   6.912 -0.1096 -0.3754  0.0947
   14ccc    H32  398   2.858   4.721   7.170  0.1877  1.1589 -0.0101
   14ccc    O10  399   2.692   4.641   7.262 -0.0015 -0.4387  0.3283
   14ccc    O11  400   2.732   4.665   6.780  0.4039 -1.1990 -0.4421
   14ccc    C22  401   2.715   5.059   7.084 -0.0115 -0.6188 -0.2954
   14ccc    H33  402   2.753   4.735   6.716 -0.4386 -2.5622 -2.2736
   14ccc    H34  403   2.692   4.446   6.936  0.4800 -1.2230 -0.0684
   14ccc    H35  404   2.606   5.054   7.071 -0.2959  1.3063  0.9283
   14ccc    H36  405   2.752   5.119   6.999  1.0431 -1.2572 -0.3027
   14ccc    O12  406   2.744   5.134   7.211  0.0490 -0.0186  0.0286
   14ccc    H37  407   2.815   5.196   7.186 -0.8560  0.6328 -1.0553
   14ccc    O13  408   2.698   4.833   7.162  0.2903 -0.4803  0.1034
   14ccc    H38  409   2.708   4.545   7.270 -1.1847 -0.8422 -1.3897
   14ccc    H39  410   2.641   4.892   6.892 -0.4691 -0.5510  2.6506
   14ccc     O5  411   2.839   4.936   6.836  0.5861  0.2481  0.1887
   14ccc    H40  412   2.922   4.893   6.861  0.4010  0.7961  1.9114
   14ccc     N4  413   2.742   4.485   7.016 -0.0859  0.3502 -0.4292
   15ccc     N1  414   3.853   4.924   7.053 -0.1723 -0.4436 -0.2866
   15ccc     H4  415   3.904   4.861   6.992  1.2968  0.4374 -0.0211
   15ccc     C3  416   3.929   5.024   7.133  0.3870 -0.3507 -0.1281
   15ccc     H5  417   3.875   5.120   7.134  0.2538 -0.4109  1.4036
   15ccc     C4  418   4.078   5.049   7.094  0.5240  0.7368  0.1586
   15ccc     H6  419   3.934   4.987   7.236  0.6775 -1.3697 -0.4980
   15ccc     H7  420   4.119   4.948   7.085 -0.1792  0.5852 -1.9831
   15ccc     H8  421   4.130   5.110   7.169 -0.3496 -0.3754  1.7374
   15ccc     N2  422   4.112   5.101   6.955  0.4239  0.4851 -0.0447
   15ccc     C5  423   4.058   5.025   6.840 -0.5841 -0.3938  0.5495
   15ccc     C6  424   4.074   5.241   6.936  0.2456 -0.3752 -0.1958
   15ccc     H9  425   4.090   5.261   6.829 -0.3971 -1.3096 -0.4743
   15ccc     C7  426   4.136   5.339   7.027 -0.5328  0.0658  0.1619
   15ccc    H10  427   3.968   5.252   6.960  0.1977 -0.6318 -0.2916
   15ccc    H11  428   4.245   5.329   7.025 -0.6492 -1.5567  0.2098
   15ccc    H12  429   4.102   5.325   7.131 -1.9589  2.6958  0.1289
   15ccc     C8  430   4.104   5.480   6.988  0.1555  0.4503 -0.0179
   15ccc     O2  431   4.007   5.517   6.920  0.1102  0.6986 -0.0393
   15ccc    H13  432   3.979   5.082   6.790  0.6662 -0.2213 -1.3588
   15ccc    H14  433   4.034   4.927   6.881  2.5933 -1.3218  0.4942
   15ccc     C9  434   4.180   4.994   6.754  0.9421  1.0248 -0.3470
   15ccc    H15  435   4.256   4.939   6.809  0.3250  2.2828  1.8773
   15ccc    H16  436   4.230   5.083   6.712 -0.0638  0.6275 -2.5442
   15ccc    C10  437   4.139   4.934   6.623  0.3433 -0.4456 -0.4065
   15ccc     O4  438   4.033   4.946   6.563 -0.4828 -0.1585  0.9301
   15ccc    C11  439   4.077   5.947   6.866 -0.0403  0.5931 -0.2946
   15ccc    C12  440   4.079   5.948   7.013  0.3390 -0.0111 -0.3007
   15ccc    H17  441   3.979   5.905   6.842  0.9220 -1.1079 -1.4644
   15ccc    C13  442   4.080   5.796   7.057 -0.8377  0.0778  1.1591
   15ccc    C14  443   4.197   5.718   6.992 -0.5928  0.5410  0.2973
   15ccc    C15  444   4.191   5.736   6.835 -0.4259  0.5503 -1.0296
   15ccc    H18  445   4.296   5.761   7.011  0.4753  0.0262 -3.3950
   15ccc    H19  446   3.984   5.743   7.047 -1.6000  1.3486  1.6197
   15ccc    H20  447   4.098   5.685   6.805 -1.0533  0.1012  1.4594
   15ccc     O1  448   4.311   5.684   6.782 -0.2470  0.3575 -0.0559
   15ccc     O6  449   4.120   5.794   7.198  0.2113  0.0874  0.7042
   15ccc    C16  450   4.085   6.083   6.793 -0.3346 -0.4589 -0.2547
   15ccc    H21  451   4.085   5.719   7.250  1.4713  0.2376  1.8047
   15ccc    H22  452   4.266   5.556   7.095  0.3564  3.3011  0.2416
   15ccc    H23  453   4.177   6.139   6.812 -2.3597  3.0876  0.1106
   15ccc    H24  454   4.017   6.150   6.848 -1.1851 -1.3241 -0.2147
   15ccc     O7  455   4.056   6.088   6.650 -0.1975  0.3080 -0.5310
   15ccc    H25  456   4.089   6.005   6.613 -0.9258  0.3396 -1.2585
   15ccc     O8  457   4.188   5.872   6.815 -0.7037  0.4105  0.2781
   15ccc    H26  458   4.320   5.589   6.800  2.1730  0.5803  0.1780
   15ccc    H27  459   4.178   5.987   7.040 -1.0809  2.5103  1.6852
   15ccc     O9  460   3.973   6.028   7.073 -0.2592  0.1219 -0.5109
   15ccc    H28  461   3.967   6.000   7.166  0.4457 -3.1127 -1.3416
   15ccc     N3  462   4.194   5.573   7.025  0.4196  0.5687 -0.5969
   15ccc    C17  463   4.158   4.704   6.168  0.0665  0.1083 -0.1411
   15ccc    C18  464   4.267   4.812   6.192 -0.3813  0.5141  0.1050
   15ccc    H29  465   4.070   4.764   6.143 -0.5549  0.0835  1.8323
   15ccc    C19  466   4.265   4.888   6.324  0.1324 -0.5092  0.5768
   15ccc    C20  467   4.243   4.786   6.443  0.6778  0.3030 -0.6073
   15ccc    C21  468   4.115   4.700   6.410 -0.5361  0.3445 -0.0705
   15ccc    H30  469   4.329   4.718   6.446 -1.5563 -2.7365 -0.1954
   15ccc    H31  470   4.181   4.959   6.319  0.2143 -0.4841 -1.1424
   15ccc    H32  471   4.016   4.747   6.409 -0.5365  0.3363 -0.9946
   15ccc    O10  472   4.112   4.587   6.502 -0.4044 -0.6520  0.5405
   15ccc    O11  473   4.389   4.953   6.351  0.4619  0.6408 -0.4945
   15ccc    C22  474   4.186   4.617   6.049  1.2325  0.2279  0.0347
   15ccc    H33  475   4.365   5.047   6.345 -0.3815  0.3902 -1.2386
   15ccc    H34  476   4.332   4.867   6.609 -0.7750  1.1390  0.1287
   15ccc    H35  477   4.203   4.673   5.956 -0.0259  1.1617  0.3412
   15ccc    H36  478   4.100   4.551   6.027 -0.1388  2.1370 -0.6713
   15ccc    O12  479   4.298   4.529   6.079  0.7187 -0.2970  0.6969
   15ccc    H37  480   4.293   4.495   6.170  2.9590  0.0783  1.0285
   15ccc    O13  481   4.132   4.628   6.288  0.0607 -0.1137  0.5342
   15ccc    H38  482   4.102   4.628   6.589  2.2012 -2.0428  1.5879
   15ccc    H39  483   4.363   4.760   6.186 -1.4204 -1.3789 -1.5558
   15ccc     O5  484   4.255   4.900   6.086 -0.2042 -0.0710  0.1448
   15ccc    H40  485   4.326   4.964   6.099 -0.9602  1.3405 -2.1384
   15ccc     N4  486   4.237   4.856   6.574 -0.6984 -0.2348  0.3165
   16ccc     N1  487   4.104   3.784   6.082 -0.7798 -1.1029 -0.6511
   16ccc     H4  488   4.161   3.754   6.160  1.7629  0.7214 -1.6442
   16ccc     C3  489   4.164   3.892   6.002 -0.3283 -0.1999 -0.2472
   16ccc     H5  490   4.272   3.871   6.004  0.2310  2.3941  0.3402
   16ccc     C4  491   4.148   4.032   6.069  0.4091 -0.7110 -0.4373
   16ccc     H6  492   4.121   3.896   5.901  0.5742  2.6628 -0.6127
   16ccc     H7  493   4.191   4.049   6.168  1.2350 -0.3407 -0.8460
   16ccc     H8  494   4.043   4.058   6.089  0.6502  0.5411 -0.6777
   16ccc     N2  495   4.199   4.129   5.973  0.2552  0.2864 -0.4026
   16ccc     C5  496   4.340   4.177   6.006 -0.5657  0.4075 -0.1667
   16ccc     C6  497   4.108   4.241   5.941  0.1610 -0.3748 -0.4425
   16ccc     H9  498   4.080   4.288   6.036  1.2132 -0.8935  0.1416
   16ccc     C7  499   3.984   4.190   5.859 -0.1830 -0.0499  0.6984
   16ccc    H10  500   4.158   4.317   5.880  0.7631 -0.5937 -0.2292
   16ccc    H11  501   3.903   4.169   5.929  0.2747 -0.9331  0.9703
   16ccc    H12  502   3.993   4.094   5.807  0.1816  0.2308  0.2292
   16ccc     C8  503   3.942   4.290   5.749 -0.3918 -0.4032 -0.2976
   16ccc     O2  504   3.863   4.383   5.763  0.1248  0.0351 -0.2550
   16ccc    H13  505   4.392   4.092   6.050 -0.4123  0.2426 -0.6570
   16ccc    H14  506   4.340   4.258   6.081  0.5284 -0.5571  0.9138
   16ccc     C9  507   4.418   4.228   5.884  0.3574 -0.0512 -0.3240
   16ccc    H15  508   4.520   4.257   5.913 -0.3347  1.5532  0.6727
   16ccc    H16  509   4.373   4.316   5.837  0.4479  0.0791 -0.1703
   16ccc    C10  510   4.443   4.109   5.794 -0.3561  0.1356  0.3481
   16ccc     O4  511   4.495   4.003   5.826 -0.1288 -0.0976 -0.9514
   16ccc    C11  512   4.035   4.474   5.260  0.1842  0.9767 -0.1203
   16ccc    C12  513   3.902   4.503   5.334 -0.8196  0.3286 -0.3892
   16ccc    H17  514   4.017   4.376   5.215 -1.1166  0.6266  1.0762
   16ccc    C13  515   3.878   4.404   5.447  0.2262 -0.1561  0.6225
   16ccc    C14  516   4.006   4.389   5.538  0.2670 -0.5842  0.6446
   16ccc    C15  517   4.132   4.369   5.457  0.3496 -0.1249 -0.4285
   16ccc    H18  518   4.024   4.487   5.584 -1.7077  0.0176  0.2193
   16ccc    H19  519   3.857   4.308   5.398 -1.0385 -0.1329  1.0941
   16ccc    H20  520   4.117   4.276   5.401 -2.1339  0.6122 -1.1274
   16ccc     O1  521   4.250   4.374   5.534  0.1848 -0.3064 -0.4517
   16ccc     O6  522   3.770   4.454   5.529 -0.3686 -0.0636 -0.0983
   16ccc    C16  523   4.076   4.575   5.156 -0.0052 -0.2568 -0.5576
   16ccc    H21  524   3.805   4.442   5.619  0.8457  0.2409 -0.5136
   16ccc    H22  525   4.067   4.203   5.610  0.0361  0.8928 -1.6674
   16ccc    H23  526   4.141   4.646   5.209 -1.1940 -0.5474  1.3941
   16ccc    H24  527   3.991   4.635   5.121  0.3771 -0.6761 -2.3353
   16ccc     O7  528   4.156   4.507   5.054 -0.1423 -0.1575  0.1642
   16ccc    H25  529   4.199   4.577   5.002  1.2724 -1.2737 -0.2300
   16ccc     O8  530   4.144   4.471   5.356  0.2089 -0.0754 -0.6175
   16ccc    H26  531   4.249   4.450   5.595  2.6026 -0.3229 -0.3142
   16ccc    H27  532   3.922   4.598   5.384  1.6903 -0.8712  1.0646
   16ccc     O9  533   3.789   4.515   5.247  0.2040  0.0557  0.1171
   16ccc    H28  534   3.730   4.576   5.295  0.4913 -0.0184  0.5648
   16ccc     N3  535   3.996   4.273   5.630 -0.2673  0.1173  0.0896
   16ccc    C17  536   4.399   3.752   5.441  0.6504 -0.2803 -0.2490
   16ccc    C18  537   4.263   3.830   5.471 -0.3833 -0.5262 -0.2507
   16ccc    H29  538   4.422   3.686   5.526 -0.7552 -0.3384  0.1215
   16ccc    C19  539   4.276   3.935   5.588  0.5645 -0.0256 -0.5499
   16ccc    C20  540   4.402   4.022   5.559 -0.4359  0.7356 -0.3587
   16ccc    C21  541   4.530   3.931   5.538  0.4178  0.4171  0.2495
   16ccc    H30  542   4.384   4.081   5.469 -1.7318  2.1236  0.7516
   16ccc    H31  543   4.294   3.879   5.680  0.1449  2.2340  0.9812
   16ccc    H32  544   4.560   3.868   5.622  2.4492  1.4737  0.3737
   16ccc    O10  545   4.651   3.994   5.493  0.2448  0.2086  0.3508
   16ccc    O11  546   4.156   4.020   5.597 -0.9614 -0.2643  0.5910
   16ccc    C22  547   4.381   3.686   5.304 -0.3305  0.1850 -0.3793
   16ccc    H33  548   4.093   3.962   5.643 -1.2489 -0.9026 -0.5630
   16ccc    H34  549   4.362   4.211   5.635  1.8278  1.4259  1.7796
   16ccc    H35  550   4.442   3.731   5.225  0.9383  0.2190  0.5960
   16ccc    H36  551   4.278   3.681   5.265  0.2022  0.3481 -1.8923
   16ccc    O12  552   4.436   3.560   5.318 -0.2701 -0.5992 -0.0115
   16ccc    H37  553   4.452   3.524   5.229 -0.3385  1.3046 -0.8534
   16ccc    O13  554   4.501   3.849   5.424 -0.2015  0.2057  0.3213
   16ccc    H38  555   4.685   4.041   5.571 -0.1109 -0.6124  1.0171
   16ccc    H39  556   4.228   3.886   5.384 -2.2968  0.6567  1.1952
   16ccc     O5  557   4.165   3.739   5.509 -0.0861  0.6021  0.6974
   16ccc    H40  558   4.080   3.776   5.480 -1.4649 -1.6099  1.6688
   16ccc     N4  559   4.414   4.128   5.662  0.3749 -0.0895  0.2100
   17ccc     N1  560   3.418   3.812   6.419  0.1769 -0.1563 -0.0023
   17ccc     H4  561   3.467   3.896   6.391  1.7130 -1.6777 -2.2007
   17ccc     C3  562   3.270   3.809   6.428  0.1929  0.3290 -0.3745
   17ccc     H5  563   3.237   3.756   6.338  1.0280 -1.9457  0.5922
   17ccc     C4  564   3.215   3.954   6.418 -0.0064  0.2475 -0.4487
   17ccc     H6  565   3.248   3.755   6.521  1.5078 -0.4785 -0.5001
   17ccc     H7  566   3.240   3.980   6.315  2.1684 -2.2799 -0.6712
   17ccc     H8  567   3.260   4.026   6.487 -1.6265  2.0336 -1.1800
   17ccc     N2  568   3.071   3.948   6.421  0.5477  0.1006  0.1397
   17ccc     C5  569   3.014   3.938   6.557 -0.6688 -0.1690 -0.0416
   17ccc     C6  570   3.002   4.054   6.346  0.1440 -0.3200 -0.1298
   17ccc     H9  571   2.895   4.067   6.365  0.0971  0.7068 -0.9874
   17ccc     C7  572   3.011   4.017   6.200  0.4983  0.7889 -0.1865
   17ccc    H10  573   3.059   4.147   6.362  0.4267 -0.8555  2.5152
   17ccc    H11  574   2.993   3.909   6.191 -0.5409  0.9942 -0.6145
   17ccc    H12  575   3.109   4.039   6.155 -0.9636 -0.6559 -4.6570
   17ccc     C8  576   2.907   4.093   6.128 -0.1346  0.2469  0.3197
   17ccc     O2  577   2.909   4.211   6.136  0.7858  0.3959 -0.2651
   17ccc    H13  578   2.962   4.032   6.577 -1.2350 -0.1461 -1.4863
   17ccc    H14  579   3.093   3.931   6.632 -0.8548 -0.0185  0.1690
   17ccc     C9  580   2.907   3.828   6.553  0.1754  0.8190  0.3271
   17ccc    H15  581   2.957   3.730   6.560  0.1776  0.6467 -1.5362
   17ccc    H16  582   2.857   3.827   6.456 -0.7585 -0.4634  0.7927
   17ccc    C10  583   2.805   3.834   6.657 -0.2030  0.4628  0.4523
   17ccc     O4  584   2.811   3.915   6.744 -0.0166 -0.5000  0.1336
   17ccc    C11  585   2.519   4.114   5.759  0.4574  0.4212 -0.1829
   17ccc    C12  586   2.472   4.052   5.889  0.0051  0.5725  0.3341
   17ccc    H17  587   2.562   4.036   5.694  0.7644  0.6482 -0.2542
   17ccc    C13  588   2.590   3.991   5.971  0.2405  0.2489 -0.0573
   17ccc    C14  589   2.699   4.096   5.996  0.4400 -0.5534 -0.2568
   17ccc    C15  590   2.734   4.167   5.859  0.2539  0.9118  0.2080
   17ccc    H18  591   2.661   4.174   6.062 -0.3794 -0.8289 -0.3960
   17ccc    H19  592   2.640   3.915   5.910 -2.8804 -1.0806 -1.1394
   17ccc    H20  593   2.771   4.091   5.789 -3.3470  0.0991 -1.0525
   17ccc     O1  594   2.819   4.273   5.878  0.2360 -0.2389 -0.0137
   17ccc     O6  595   2.546   3.933   6.090  0.0149 -0.3836 -0.1367
   17ccc    C16  596   2.400   4.182   5.684 -0.2865  0.5968 -0.4357
   17ccc    H21  597   2.607   3.967   6.158 -0.2570 -2.4198  1.2267
   17ccc    H22  598   2.809   3.927   6.064 -2.0753  0.1715 -0.5767
   17ccc    H23  599   2.407   4.289   5.704  0.2247  0.2147  1.5850
   17ccc    H24  600   2.307   4.148   5.731  0.4386  0.6319  1.0663
   17ccc     O7  601   2.415   4.158   5.549  0.3584  0.0756  0.2995
   17ccc    H25  602   2.478   4.224   5.517  0.7098 -0.2734  0.2746
   17ccc     O8  603   2.616   4.218   5.800  0.5256  1.1827  0.1028
   17ccc    H26  604   2.866   4.259   5.962  0.8600 -2.1367 -0.6248
   17ccc    H27  605   2.428   4.137   5.943 -0.7579  0.9770 -0.8872
   17ccc     O9  606   2.373   3.944   5.864 -0.0639  0.0537  0.1929
   17ccc    H28  607   2.423   3.862   5.849 -0.5132 -0.3909  1.0574
   17ccc     N3  608   2.815   4.028   6.057 -0.4334  0.1149 -0.2186
   17ccc    C17  609   2.288   3.763   6.763  1.4109  0.1728  0.1262
   17ccc    C18  610   2.359   3.628   6.791  0.0395  0.1960 -0.1843
   17ccc    H29  611   2.258   3.758   6.657 -0.3598 -2.6816  0.6380
   17ccc    C19  612   2.489   3.623   6.714 -0.0567  0.2331  0.3719
   17ccc    C20  613   2.570   3.753   6.722  0.3407 -1.1254  0.4165
   17ccc    C21  614   2.484   3.885   6.712 -0.2075 -0.4969  0.6791
   17ccc    H30  615   2.611   3.757   6.824  1.1570  1.7023  0.0763
   17ccc    H31  616   2.464   3.606   6.609  0.6543 -0.0811  0.2467
   17ccc    H32  617   2.455   3.895   6.607  2.8375 -2.2332 -0.4420
   17ccc    O10  618   2.552   4.003   6.759  0.4642  0.4500  0.0350
   17ccc    O11  619   2.575   3.515   6.757  0.1940  0.2017 -0.2027
   17ccc    C22  620   2.153   3.773   6.845 -0.1315  0.2526 -0.0864
   17ccc    H33  621   2.520   3.435   6.741  0.5143  0.1617 -1.1898
   17ccc    H34  622   2.696   3.688   6.567 -1.2963 -0.8802  0.3074
   17ccc    H35  623   2.156   3.745   6.951 -3.3742 -0.2993 -0.0215
   17ccc    H36  624   2.084   3.700   6.801  0.5967 -1.4608  1.4827
   17ccc    O12  625   2.103   3.901   6.842 -0.4809 -0.2467 -0.1404
   17ccc    H37  626   2.171   3.951   6.892 -1.1628 -0.0395  0.6001
   17ccc    O13  627   2.374   3.879   6.796  0.1656 -0.2394  0.0001
   17ccc    H38  628   2.645   3.983   6.737 -0.1244 -3.1554  0.2544
   17ccc    H39  629   2.399   3.631   6.893  0.4456  0.4822 -0.3518
   17ccc     O5  630   2.271   3.511   6.759 -0.4891 -0.0019 -0.4104
   17ccc    H40  631   2.184   3.505   6.802 -0.6841 -3.1290 -1.0367
   17ccc     N4  632   2.696   3.758   6.640  0.6518 -0.9797  0.4653
   18ccc     N1  633   4.235   5.292   4.777  0.2182 -0.8754 -0.4657
   18ccc     H4  634   4.290   5.325   4.699 -0.0987  4.0047  0.9943
   18ccc     C3  635   4.250   5.152   4.821  0.7805 -0.1872  0.0800
   18ccc     H5  636   4.262   5.145   4.930  1.0314 -0.9494  0.0089
   18ccc     C4  637   4.351   5.059   4.745 -0.3322  0.0705  0.4471
   18ccc     H6  638   4.152   5.104   4.814  0.8878 -0.2534 -1.1255
   18ccc     H7  639   4.311   5.038   4.646  2.2843 -1.6195 -0.3665
   18ccc     H8  640   4.366   4.964   4.798  1.0791  0.3840  0.6659
   18ccc     N2  641   4.476   5.137   4.733 -0.3085 -0.5671  0.3061
   18ccc     C5  642   4.534   5.170   4.859  0.1072  0.2295  0.0176
   18ccc     C6  643   4.562   5.066   4.637 -0.0591  0.4296 -0.8827
   18ccc     H9  644   4.664   5.095   4.667 -0.6439  1.1233  0.4900
   18ccc     C7  645   4.547   5.119   4.501 -0.4251 -1.4127  0.2441
   18ccc    H10  646   4.554   4.957   4.650  0.7958  0.4020 -0.5159
   18ccc    H11  647   4.620   5.197   4.478  0.1407 -1.7087  1.0002
   18ccc    H12  648   4.445   5.155   4.481  0.0545  0.7962  1.4055
   18ccc     C8  649   4.575   5.007   4.414 -0.2625 -0.4492 -0.2012
   18ccc     O2  650   4.493   4.919   4.395 -0.5975 -0.3610 -0.2175
   18ccc    H13  651   4.467   5.240   4.912 -0.0782  0.3912 -0.4240
   18ccc    H14  652   4.627   5.217   4.826 -0.3626  0.8353 -0.4695
   18ccc     C9  653   4.566   5.049   4.942  1.0096  0.3830 -0.2608
   18ccc    H15  654   4.597   4.967   4.877  0.1555 -2.7920  3.0090
   18ccc    H16  655   4.467   5.023   4.982  1.0016  0.4114 -0.2619
   18ccc    C10  656   4.656   5.092   5.049 -0.4629 -0.0977 -0.3704
   18ccc     O4  657   4.678   5.205   5.088 -0.4691 -0.0007 -0.3390
   18ccc    C11  658   4.903   4.815   4.032 -0.3524 -0.1921  0.7829
   18ccc    C12  659   4.976   4.803   4.168 -0.0948  0.6382 -0.0395
   18ccc    H17  660   4.934   4.900   3.969 -1.8590  0.0362  0.2982
   18ccc    C13  661   4.920   4.919   4.259 -0.4060  0.6968  0.1518
   18ccc    C14  662   4.762   4.918   4.260 -0.7651 -0.5039  0.5324
   18ccc    C15  663   4.715   4.931   4.112 -0.1434  0.0257 -0.3542
   18ccc    H18  664   4.728   4.819   4.294 -2.4466 -0.0770  0.2144
   18ccc    H19  665   4.950   5.017   4.220  0.5833  0.7302  0.9566
   18ccc    H20  666   4.756   5.022   4.067  2.2760 -0.3082  1.0419
   18ccc     O1  667   4.573   4.928   4.103 -0.1871 -0.5425 -0.0714
   18ccc     O6  668   4.972   4.905   4.393  0.3919  0.1210  0.0898
   18ccc    C16  669   4.931   4.687   3.945  0.7954  0.8259 -0.2413
   18ccc    H21  670   4.935   4.832   4.446 -1.5515 -0.4729 -1.9387
   18ccc    H22  671   4.734   5.110   4.356  0.7924 -0.4057 -0.1914
   18ccc    H23  672   4.879   4.602   3.990  0.9072  1.4886  1.1909
   18ccc    H24  673   5.039   4.664   3.948  0.8029  0.9449  1.3114
   18ccc     O7  674   4.892   4.707   3.811 -0.6051 -0.3915  0.4659
   18ccc    H25  675   4.849   4.629   3.772 -0.8019  0.7032 -1.7046
   18ccc     O8  676   4.759   4.821   4.039 -0.4561 -0.4361  0.3571
   18ccc    H26  677   4.541   4.983   4.177  1.4197 -1.8924  1.7411
   18ccc    H27  678   4.942   4.712   4.218  0.1270  1.1641  1.1165
   18ccc     O9  679   5.114   4.819   4.138 -0.5235  0.1295  0.2217
   18ccc    H28  680   5.169   4.790   4.214  0.8679  0.3528 -0.6668
   18ccc     N3  681   4.694   5.016   4.350 -0.5874  0.1736 -0.3427
   18ccc    C17  682   4.886   5.109   5.483  1.0102 -0.2536  0.0457
   18ccc    C18  683   4.750   5.049   5.494 -0.0706 -0.7116  0.3613
   18ccc    H29  684   4.879   5.213   5.448 -0.5222  0.0593  1.1756
   18ccc    C19  685   4.681   5.047   5.355  0.5069  0.6420  0.0945
   18ccc    C20  686   4.774   4.994   5.244  0.1747  0.1456 -0.1760
   18ccc    C21  687   4.909   5.059   5.245 -0.1847  0.1077  0.0471
   18ccc    H30  688   4.797   4.891   5.276  0.9283  0.3436 -0.0737
   18ccc    H31  689   4.633   5.142   5.332  0.2892  0.1668 -1.5570
   18ccc    H32  690   4.904   5.166   5.223 -0.6853  0.1892  0.5183
   18ccc    O10  691   5.007   4.986   5.169  0.4809 -0.3097 -0.4657
   18ccc    O11  692   4.576   4.945   5.362  0.2216 -0.2572 -0.2414
   18ccc    C22  693   4.967   5.103   5.619 -0.4852 -0.4460 -0.6128
   18ccc    H33  694   4.567   4.904   5.274 -1.0960 -0.2946 -0.1090
   18ccc    H34  695   4.672   4.896   5.096  1.1577 -0.9475  2.3710
   18ccc    H35  696   4.972   4.998   5.651 -0.1484 -0.2216  0.1083
   18ccc    H36  697   4.910   5.161   5.693  0.1739 -0.4590 -0.0834
   18ccc    O12  698   5.107   5.142   5.608  0.4060 -0.7953 -0.0824
   18ccc    H37  699   5.147   5.135   5.697 -1.0205 -0.5364  0.6089
   18ccc    O13  700   4.960   5.037   5.381 -0.1385  0.0410 -0.1403
   18ccc    H38  701   5.094   5.011   5.206 -0.0797  1.4573 -0.2632
   18ccc    H39  702   4.763   4.945   5.526 -0.0111 -0.6791  0.4417
   18ccc     O5  703   4.659   5.118   5.579 -0.4788 -0.0133  0.2110
   18ccc    H40  704   4.673   5.212   5.559 -0.4772  0.4532  2.2433
   18ccc     N4  705   4.711   4.989   5.110  0.1118 -0.1962  0.5873
   19ccc     N1  706   4.780   5.402   4.697  0.3741  0.1157 -0.2502
   19ccc     H4  707   4.789   5.341   4.778  0.6054  0.3108 -0.1290
   19ccc     C3  708   4.872   5.376   4.588 -0.0535  0.4565 -0.0358
   19ccc     H5  709   4.828   5.406   4.492  0.4040 -0.4130 -0.5231
   19ccc     C4  710   4.914   5.225   4.582  0.3479 -0.1488 -0.3929
   19ccc     H6  711   4.965   5.432   4.605  0.7778 -0.0044 -2.6559
   19ccc     H7  712   4.991   5.218   4.504 -1.2527  1.5509 -2.2754
   19ccc     H8  713   4.842   5.170   4.520  2.3208 -1.6264 -1.5099
   19ccc     N2  714   4.952   5.173   4.716  0.7192  0.4678  0.4503
   19ccc     C5  715   4.980   5.029   4.702  0.1263 -0.1957 -0.1383
   19ccc     C6  716   5.065   5.234   4.787  0.2213  0.3000  0.1945
   19ccc     H9  717   5.143   5.159   4.796 -0.1653 -0.3824 -1.7547
   19ccc     C7  718   5.018   5.279   4.927  0.3880 -0.6104  0.4572
   19ccc    H10  719   5.108   5.321   4.735  0.5016  0.4338  0.6394
   19ccc    H11  720   4.972   5.191   4.974 -2.0583  0.2245 -0.2045
   19ccc    H12  721   4.941   5.357   4.923  1.3167  0.2799 -0.9484
   19ccc     C8  722   5.132   5.330   5.011 -0.5986  0.0395 -0.3691
   19ccc     O2  723   5.245   5.360   4.969  0.4616 -0.2172  0.3747
   19ccc    H13  724   5.078   5.016   4.656 -0.0203  2.0731 -1.2492
   19ccc    H14  725   4.915   4.983   4.626 -0.2335  2.3327 -1.4625
   19ccc     C9  726   4.963   4.954   4.834  0.5006 -0.0503  0.3538
   19ccc    H15  727   4.859   4.953   4.868  0.9368 -3.1340  1.9178
   19ccc    H16  728   5.030   4.998   4.910  0.6899  0.9219 -0.3503
   19ccc    C10  729   5.000   4.814   4.811 -1.3497 -0.0374 -0.3712
   19ccc     O4  730   4.999   4.754   4.704 -0.3132  0.2366 -0.7695
   19ccc    C11  731   5.254   5.617   5.447  0.4413  0.6536  0.8643
   19ccc    C12  732   5.280   5.469   5.461  0.2622  0.6574  0.2762
   19ccc    H17  733   5.156   5.647   5.488 -0.8751 -2.0176 -0.0991
   19ccc    C13  734   5.184   5.382   5.378  0.0167  0.2080  0.2013
   19ccc    C14  735   5.181   5.430   5.228  0.1620  0.0203 -0.3344
   19ccc    C15  736   5.153   5.582   5.222  0.2642 -0.7104 -0.2814
   19ccc    H18  737   5.285   5.419   5.194  0.6116  0.2664  0.9306
   19ccc    H19  738   5.082   5.395   5.415  0.1293  1.8868  0.0123
   19ccc    H20  739   5.055   5.607   5.264  0.8356 -0.9426  1.2503
   19ccc     O1  740   5.176   5.641   5.092  0.4370  0.0244  0.4149
   19ccc     O6  741   5.209   5.238   5.393  0.0368 -0.0879  0.4880
   19ccc    C16  742   5.366   5.702   5.519  0.1862 -0.3379  0.0319
   19ccc    H21  743   5.168   5.208   5.476  0.9529 -1.5304  0.4390
   19ccc    H22  744   5.003   5.351   5.173  0.6863  0.4658  1.8928
   19ccc    H23  745   5.461   5.684   5.465  0.9412  0.0018  1.2228
   19ccc    H24  746   5.367   5.667   5.623 -0.3266 -0.7477 -0.0963
   19ccc     O7  747   5.332   5.841   5.507 -0.2269  0.1000  0.1184
   19ccc    H25  748   5.290   5.837   5.419 -0.4113 -5.8899  0.0747
   19ccc     O8  749   5.256   5.649   5.309 -0.0370 -0.1536  0.1398
   19ccc    H26  750   5.135   5.729   5.086 -1.6885 -0.9853 -1.3617
   19ccc    H27  751   5.382   5.450   5.425 -0.5391 -1.1200 -1.2422
   19ccc     O9  752   5.267   5.432   5.598  0.1040  0.5459  0.3061
   19ccc    H28  753   5.321   5.352   5.610 -1.6053 -0.4487  1.8856
   19ccc     N3  754   5.099   5.343   5.140  0.0555  0.2795  0.0259
   19ccc    C17  755   5.253   4.424   5.115 -0.6945  0.9620 -0.2835
   19ccc    C18  756   5.098   4.420   5.127 -0.1545 -0.5525  0.4815
   19ccc    H29  757   5.299   4.481   5.198 -0.1538  0.1831 -0.0390
   19ccc    C19  758   5.031   4.559   5.090  0.3717  0.1013  0.9454
   19ccc    C20  759   5.086   4.621   4.958  0.3918 -0.0888  0.0326
   19ccc    C21  760   5.241   4.618   4.964  0.0599  0.0879  0.4749
   19ccc    H30  761   5.071   4.546   4.880  2.4112 -0.7401  0.2212
   19ccc    H31  762   5.060   4.627   5.171  1.4876  1.8639 -0.8717
   19ccc    H32  763   5.271   4.682   5.048  1.7516  1.4697 -1.0856
   19ccc    O10  764   5.323   4.656   4.851 -0.0774 -0.5279  0.1421
   19ccc    O11  765   4.887   4.546   5.086 -0.5603 -0.0990  0.0893
   19ccc    C22  766   5.307   4.278   5.105  0.9887  0.4409 -0.2212
   19ccc    H33  767   4.869   4.478   5.018  1.6264 -1.6059  0.8819
   19ccc    H34  768   5.066   4.815   5.004  1.5104 -0.0771 -1.0574
   19ccc    H35  769   5.275   4.242   5.006 -0.5975  1.2372 -0.0256
   19ccc    H36  770   5.256   4.211   5.176 -0.1313  1.8632  0.3703
   19ccc    O12  771   5.441   4.267   5.126 -0.1572 -0.1421  0.0504
   19ccc    H37  772   5.455   4.240   5.218 -1.7695 -2.6495 -0.3300
   19ccc    O13  773   5.282   4.478   4.983  1.2886  0.0306 -0.6960
   19ccc    H38  774   5.328   4.579   4.791 -2.3639 -1.7562  1.4051
   19ccc    H39  775   5.072   4.343   5.053  0.1532  0.8681 -1.1896
   19ccc     O5  776   5.072   4.380   5.260 -0.9202  0.1508 -0.0968
   19ccc    H40  777   4.975   4.388   5.257 -1.1067 -1.6859 -0.1079
   19ccc     N4  778   5.022   4.754   4.935 -0.3293 -0.0688  0.0714
   20ccc     N1  779   3.747   4.324   5.016  0.1705 -0.4522  0.3609
   20ccc     H4  780   3.715   4.397   5.078  0.8821 -0.5284  0.8176
   20ccc     C3  781   3.640   4.221   4.981 -0.3033 -0.0010  0.5007
   20ccc     H5  782   3.586   4.253   4.891  1.1802 -0.7766 -0.7176
   20ccc     C4  783   3.540   4.214   5.101  0.7173 -0.0430 -0.1429
   20ccc     H6  784   3.678   4.120   4.965 -0.6009 -0.3804  2.0166
   20ccc     H7  785   3.595   4.164   5.183  0.4336 -1.1831 -0.6234
   20ccc     H8  786   3.454   4.146   5.089  0.0784  0.5513  0.8497
   20ccc     N2  787   3.485   4.347   5.152  0.1733 -0.1644 -0.0283
   20ccc     C5  788   3.374   4.316   5.245 -0.1622  0.4302  0.4134
   20ccc     C6  789   3.450   4.449   5.047  0.7523  0.2666 -0.0145
   20ccc     H9  790   3.518   4.453   4.961 -1.9147 -0.5381 -2.3212
   20ccc     C7  791   3.451   4.587   5.112  0.1269  0.0026 -0.1037
   20ccc    H10  792   3.349   4.431   5.009  0.9479  3.0929 -2.2337
   20ccc    H11  793   3.553   4.623   5.132 -0.5947  2.1807 -0.1044
   20ccc    H12  794   3.384   4.585   5.199 -0.9164 -1.5203 -0.9009
   20ccc     C8  795   3.384   4.682   5.015 -0.5377 -1.1142 -0.1765
   20ccc     O2  796   3.326   4.656   4.914 -0.1266 -0.2451 -0.3945
   20ccc    H13  797   3.318   4.227   5.213  2.0684 -0.0594 -2.5584
   20ccc    H14  798   3.298   4.395   5.249  0.5352  1.5227 -3.5117
   20ccc     C9  799   3.443   4.282   5.378  0.7533 -0.1236  0.6238
   20ccc    H15  800   3.513   4.362   5.405 -1.0592  1.3986  1.0138
   20ccc    H16  801   3.503   4.191   5.384  0.9991  0.0215  0.3695
   20ccc    C10  802   3.339   4.277   5.486  0.0970  0.8678 -0.5054
   20ccc     O4  803   3.226   4.251   5.460  0.2466 -0.4475 -0.3367
   20ccc    C11  804   3.172   5.186   5.019 -0.0542  0.1206  0.0071
   20ccc    C12  805   3.315   5.165   4.959 -0.4564 -0.7531  0.0121
   20ccc    H17  806   3.194   5.191   5.127  1.8255  2.0861 -0.3879
   20ccc    C13  807   3.399   5.047   5.021  0.2556  0.0933 -0.3685
   20ccc    C14  808   3.311   4.917   5.007  0.0886 -0.3201 -0.4308
   20ccc    C15  809   3.166   4.947   5.066  0.2965 -0.1242  0.1546
   20ccc    H18  810   3.297   4.908   4.898 -3.7209  4.4138 -0.6861
   20ccc    H19  811   3.413   5.063   5.129  0.2651 -1.7841 -0.0615
   20ccc    H20  812   3.179   4.977   5.171  2.8971 -1.5672  0.3192
   20ccc     O1  813   3.077   4.842   5.054  0.2631  1.0350 -0.5256
   20ccc     O6  814   3.521   5.039   4.956  0.1533 -0.1217 -0.4436
   20ccc    C16  815   3.091   5.289   4.948 -0.1982 -0.2548  0.1903
   20ccc    H21  816   3.572   5.109   5.001 -0.3743  0.8629 -1.3334
   20ccc    H22  817   3.408   4.821   5.164  4.1214  0.8929 -0.1960
   20ccc    H23  818   3.088   5.276   4.839  0.4665  2.4822 -0.2336
   20ccc    H24  819   3.147   5.381   4.967  1.3797 -0.4585 -2.8403
   20ccc     O7  820   2.961   5.308   5.001 -0.0077 -0.1964 -0.5520
   20ccc    H25  821   2.907   5.237   4.961 -0.6188 -1.6506  2.5717
   20ccc     O8  822   3.114   5.058   4.999  0.4068  0.1402  0.3172
   20ccc    H26  823   3.105   4.766   5.107  1.0235  1.3863 -0.4152
   20ccc    H27  824   3.306   5.151   4.851 -1.4372  0.6756 -0.1205
   20ccc     O9  825   3.390   5.283   4.989 -0.4922  0.0099  0.3233
   20ccc    H28  826   3.362   5.350   4.925 -2.2420 -0.1861  0.8422
   20ccc     N3  827   3.379   4.806   5.067 -0.0024  0.3578  0.9118
   20ccc    C17  828   3.569   4.038   5.906  0.7412  0.5101 -1.0053
   20ccc    C18  829   3.555   3.982   5.769 -0.8821  0.3695 -0.9178
   20ccc    H29  830   3.475   4.041   5.962  1.5559  0.6632  0.4118
   20ccc    C19  831   3.467   4.059   5.670 -0.2164 -0.0925  0.0725
   20ccc    C20  832   3.488   4.217   5.668 -0.3874  0.5822 -0.8148
   20ccc    C21  833   3.522   4.266   5.815 -0.0034  0.7608 -0.0181
   20ccc    H30  834   3.578   4.233   5.607  0.5830  0.4915  0.5395
   20ccc    H31  835   3.360   4.045   5.692 -0.7774 -1.6199 -3.0637
   20ccc    H32  836   3.433   4.272   5.879 -0.1121  0.6396 -0.1570
   20ccc    O10  837   3.577   4.393   5.816 -0.3482  0.5544 -0.7403
   20ccc    O11  838   3.484   3.999   5.545 -0.0867  0.0672  0.3212
   20ccc    C22  839   3.681   3.965   5.985 -0.6100 -0.1999  0.9942
   20ccc    H33  840   3.447   3.910   5.555 -0.9854  0.6331  2.5207
   20ccc    H34  841   3.295   4.285   5.683  0.4576  0.6566  0.6921
   20ccc    H35  842   3.781   3.973   5.940  0.5095 -0.5837  3.2570
   20ccc    H36  843   3.660   3.858   5.988  0.9538 -0.5167  2.3819
   20ccc    O12  844   3.692   4.010   6.126  0.2369  0.6426  0.4044
   20ccc    H37  845   3.712   4.105   6.135  1.2067  0.5116 -0.2088
   20ccc    O13  846   3.610   4.180   5.887  0.2260  0.8277  0.4207
   20ccc    H38  847   3.668   4.393   5.781 -0.0653 -0.7564 -0.0440
   20ccc    H39  848   3.657   3.989   5.730  0.4844 -3.6430  1.3324
   20ccc     O5  849   3.521   3.847   5.782 -0.4759 -0.2570 -0.2327
   20ccc    H40  850   3.596   3.792   5.814 -0.2022  0.8593  1.1253
   20ccc     N4  851   3.373   4.286   5.617  0.1435  0.4114  0.3139
   21ccc     N1  852   3.499   5.000   4.671  0.5209 -0.4900 -0.3944
   21ccc     H4  853   3.514   5.017   4.770 -0.4060 -0.7943 -0.1912
   21ccc     C3  854   3.475   5.116   4.577 -0.6448  0.6486 -0.4013
   21ccc     H5  855   3.409   5.082   4.497 -0.5194  0.8880 -0.6069
   21ccc     C4  856   3.607   5.159   4.517  0.1475  0.1899  0.1194
   21ccc     H6  857   3.432   5.199   4.635 -1.9154 -1.5940  2.1358
   21ccc     H7  858   3.582   5.251   4.464 -0.0513 -1.0027 -1.9833
   21ccc     H8  859   3.628   5.077   4.447 -0.0471 -0.2649  0.5793
   21ccc     N2  860   3.721   5.170   4.617  0.5554  0.1345  0.1036
   21ccc     C5  861   3.850   5.191   4.556  0.3111  0.2169  0.1887
   21ccc     C6  862   3.693   5.254   4.735 -0.0856  0.3704 -0.0612
   21ccc     H9  863   3.695   5.356   4.695 -1.8911 -0.3551 -2.2053
   21ccc     C7  864   3.802   5.234   4.841 -0.1371  0.1764  0.9197
   21ccc    H10  865   3.596   5.232   4.781  0.6480  1.1722  1.9746
   21ccc    H11  866   3.900   5.277   4.818 -1.2171  1.7333 -1.1494
   21ccc    H12  867   3.813   5.127   4.863 -1.3752  0.5003  3.4388
   21ccc     C8  868   3.767   5.291   4.971  0.0761  0.2093 -0.1547
   21ccc     O2  869   3.733   5.222   5.065 -0.3948 -0.0739 -0.1867
   21ccc    H13  870   3.933   5.185   4.628  2.3256  0.1900 -2.0208
   21ccc    H14  871   3.851   5.283   4.496 -0.8321 -0.6266 -1.1750
   21ccc     C9  872   3.879   5.084   4.451 -0.0210 -0.9847 -0.5886
   21ccc    H15  873   3.827   5.097   4.356 -2.7461  0.7427  0.9953
   21ccc    H16  874   3.857   4.985   4.492 -1.4536 -0.6763 -0.5511
   21ccc    C10  875   4.025   5.088   4.430  0.1327  0.1785 -0.6565
   21ccc     O4  876   4.106   5.023   4.494  0.0801 -0.2307  0.6489
   21ccc    C11  877   3.799   5.575   5.384 -0.2930 -0.0693  0.8669
   21ccc    C12  878   3.897   5.632   5.271 -0.2055  0.0479 -0.3868
   21ccc    H17  879   3.836   5.483   5.430 -1.1878 -0.9378 -0.0936
   21ccc    C13  880   3.903   5.536   5.146  0.6293  0.1222 -0.6289
   21ccc    C14  881   3.758   5.502   5.099 -0.5717 -0.2933  0.7165
   21ccc    C15  882   3.675   5.445   5.213  0.7901 -0.3342 -0.8623
   21ccc    H18  883   3.710   5.597   5.074 -0.8562 -0.1798  1.6564
   21ccc    H19  884   3.953   5.443   5.174 -2.2774 -1.1925  0.6148
   21ccc    H20  885   3.711   5.348   5.249  0.2202 -0.5771 -0.9324
   21ccc     O1  886   3.545   5.421   5.179 -0.2507  1.3334  0.3673
   21ccc     O6  887   3.960   5.604   5.039 -0.2506  0.5511  0.0038
   21ccc    C16  888   3.769   5.679   5.481  0.5843 -0.1098  0.3665
   21ccc    H21  889   3.992   5.528   4.988 -4.0216 -1.2130 -0.0233
   21ccc    H22  890   3.783   5.476   4.898 -1.2511 -0.0227 -0.6172
   21ccc    H23  891   3.739   5.766   5.421  1.1699 -1.3518 -1.8379
   21ccc    H24  892   3.857   5.709   5.539  2.1985 -1.9018 -0.9988
   21ccc     O7  893   3.659   5.643   5.573 -0.1664  0.0781 -0.3957
   21ccc    H25  894   3.591   5.618   5.507  2.8259  0.5891 -3.9969
   21ccc     O8  895   3.668   5.542   5.316 -0.7065 -0.1804  0.0278
   21ccc    H26  896   3.540   5.389   5.087  0.6394 -0.3750  0.8608
   21ccc    H27  897   3.855   5.729   5.240 -1.4735 -0.1778  0.5601
   21ccc     O9  898   4.029   5.649   5.326 -0.1246 -0.0334  0.1909
   21ccc    H28  899   4.069   5.723   5.277  1.7482 -0.9995  0.1667
   21ccc     N3  900   3.754   5.419   4.978  0.2255 -0.0901 -0.0891
   21ccc    C17  901   4.401   5.330   4.116  0.3150 -0.0697  0.1653
   21ccc    C18  902   4.370   5.380   4.253 -0.0240  0.6876  0.4662
   21ccc    H29  903   4.342   5.393   4.048  0.4310  1.4618  1.4223
   21ccc    C19  904   4.227   5.349   4.299  0.4726 -0.4303  0.0304
   21ccc    C20  905   4.198   5.203   4.287 -0.0608  0.9295 -0.0427
   21ccc    C21  906   4.231   5.148   4.143  0.0098  0.1342 -0.6031
   21ccc    H30  907   4.263   5.147   4.355 -1.5807  0.0552  0.7563
   21ccc    H31  908   4.159   5.402   4.232 -2.4894  0.0895  3.1879
   21ccc    H32  909   4.166   5.208   4.078  2.4376  0.5282 -2.8227
   21ccc    O10  910   4.210   5.010   4.133  0.4175  0.2818  0.1785
   21ccc    O11  911   4.203   5.389   4.434 -0.6087  0.3704  0.5696
   21ccc    C22  912   4.543   5.358   4.080 -0.4644  0.2628  0.9211
   21ccc    H33  913   4.114   5.368   4.467  0.0708 -0.7563  1.7785
   21ccc    H34  914   3.987   5.225   4.277  0.3167 -1.0513 -1.4208
   21ccc    H35  915   4.601   5.292   4.146  0.2564  1.0208  1.0613
   21ccc    H36  916   4.573   5.462   4.097  0.5621  0.2618 -0.6921
   21ccc    O12  917   4.565   5.320   3.947 -0.3433  0.0859 -0.2173
   21ccc    H37  918   4.489   5.264   3.923 -0.6663 -1.3285  3.4436
   21ccc    O13  919   4.364   5.187   4.105  0.4587  0.4365  0.2014
   21ccc    H38  920   4.267   4.993   4.056 -0.0347 -0.8604  0.0776
   21ccc    H39  921   4.439   5.336   4.326 -0.0207 -0.9121 -0.4582
   21ccc     O5  922   4.389   5.519   4.256 -0.3230 -0.0426 -0.4057
   21ccc    H40  923   4.356   5.545   4.344 -0.0690  2.2329 -0.9194
   21ccc     N4  924   4.057   5.174   4.331 -0.3473 -0.3021  0.2115
   22ccc     N1  925   2.912   4.632   6.221  0.8188  0.5347  0.1327
   22ccc     H4  926   2.859   4.700   6.169 -2.2780 -2.5360 -1.1490
   22ccc     C3  927   2.830   4.526   6.285  0.3141 -0.4498 -0.0957
   22ccc     H5  928   2.881   4.430   6.301  0.2682 -0.3208  0.8893
   22ccc     C4  929   2.721   4.489   6.187  0.4606 -0.1112  0.1413
   22ccc     H6  930   2.785   4.569   6.376  0.5732 -0.2976 -0.0392
   22ccc     H7  931   2.663   4.411   6.238 -0.5799  0.7768  0.3475
   22ccc     H8  932   2.772   4.440   6.104  3.3965  0.2281  1.6231
   22ccc     N2  933   2.650   4.609   6.140  0.2276 -0.4641 -0.0618
   22ccc     C5  934   2.602   4.607   6.006 -0.9426  0.6942 -0.1298
   22ccc     C6  935   2.546   4.648   6.235  0.6503 -0.6662  0.2663
   22ccc     H9  936   2.454   4.603   6.197  0.3996  0.1198 -0.0893
   22ccc     C7  937   2.534   4.804   6.240  0.0823  0.1095 -0.2068
   22ccc    H10  938   2.559   4.612   6.337 -0.9671 -0.4032  0.5916
   22ccc    H11  939   2.504   4.861   6.151  0.1608  2.5379  1.2396
   22ccc    H12  940   2.629   4.855   6.263  0.2890 -0.5648  0.4873
   22ccc     C8  941   2.433   4.836   6.344 -0.0016  0.1836  0.3462
   22ccc     O2  942   2.312   4.831   6.320  0.4361  1.0932 -0.6337
   22ccc    H13  943   2.494   4.625   5.998 -0.8772  2.4588  1.9168
   22ccc    H14  944   2.636   4.515   5.957  0.8028  1.1451  0.1773
   22ccc     C9  945   2.677   4.719   5.939 -1.1095 -0.2528 -0.4729
   22ccc    H15  946   2.786   4.715   5.944 -0.9177  3.3440  1.8263
   22ccc    H16  947   2.651   4.817   5.981 -0.9224 -0.2440 -0.3794
   22ccc    C10  948   2.631   4.738   5.793  0.1131 -0.0641 -0.1922
   22ccc     O4  949   2.550   4.670   5.731 -0.3104 -0.0337  0.1411
   22ccc    C11  950   2.372   4.778   6.867  0.3743  0.0040  0.1102
   22ccc    C12  951   2.348   4.923   6.822  0.3213  0.4279 -0.0496
   22ccc    H17  952   2.477   4.771   6.899  0.0535  0.4224  1.3348
   22ccc    C13  953   2.413   4.959   6.687  0.1098  0.5649  0.6158
   22ccc    C14  954   2.390   4.851   6.584 -0.4400  0.0530  0.0318
   22ccc    C15  955   2.428   4.711   6.650  0.1028 -0.9550 -1.0298
   22ccc    H18  956   2.284   4.844   6.558 -0.3163 -0.8310 -0.2873
   22ccc    H19  957   2.522   4.958   6.698  0.3217  0.0473 -1.1802
   22ccc    H20  958   2.535   4.716   6.669 -0.0951  2.4452 -0.1950
   22ccc     O1  959   2.389   4.605   6.569 -0.0129  0.6902 -0.2991
   22ccc     O6  960   2.366   5.081   6.629 -0.2017  0.2298 -0.2332
   22ccc    C16  961   2.274   4.737   6.982 -0.9371  0.0428  0.4382
   22ccc    H21  962   2.434   5.116   6.570 -0.0429 -0.2871 -0.3689
   22ccc    H22  963   2.571   4.845   6.480  0.4816  0.7836  0.8349
   22ccc    H23  964   2.172   4.721   6.944  0.0040 -1.3293 -1.6850
   22ccc    H24  965   2.266   4.806   7.068 -0.6036  0.4369  0.1610
   22ccc     O7  966   2.317   4.613   7.035 -0.3265  0.2211 -0.5051
   22ccc    H25  967   2.343   4.555   6.961  1.7239 -0.3334  0.5722
   22ccc     O8  968   2.348   4.690   6.763 -0.4391  0.0048  0.0664
   22ccc    H26  969   2.298   4.584   6.599 -0.4186  1.2396 -1.1113
   22ccc    H27  970   2.240   4.937   6.813  0.4239  0.0530 -2.8975
   22ccc     O9  971   2.404   5.012   6.914  0.5527 -0.0650 -0.4337
   22ccc    H28  972   2.350   5.092   6.902  0.6133  0.1567  0.6841
   22ccc     N3  973   2.474   4.872   6.465  0.3454  0.1058  0.4828
   22ccc    C17  974   2.541   4.857   5.335  0.2289  0.0088 -0.3203
   22ccc    C18  975   2.513   4.976   5.431  0.5288  0.3959  0.4325
   22ccc    H29  976   2.480   4.771   5.365 -0.2805  0.5316  0.1866
   22ccc    C19  977   2.538   4.939   5.577 -0.3085 -0.2232 -0.1110
   22ccc    C20  978   2.677   4.864   5.587  0.3516  0.0760 -0.1290
   22ccc    C21  979   2.705   4.753   5.486 -0.1406  0.1128  0.3042
   22ccc    H30  980   2.753   4.935   5.552 -0.1655 -0.2894 -2.0886
   22ccc    H31  981   2.468   4.860   5.608  0.3544 -0.4615  0.8242
   22ccc    H32  982   2.630   4.673   5.496 -1.5252  1.1386 -1.2021
   22ccc    O10  983   2.840   4.703   5.474 -0.2308 -0.2456  0.3458
   22ccc    O11  984   2.524   5.058   5.652  0.2564  0.0026 -0.0602
   22ccc    C22  985   2.520   4.886   5.186  0.2343 -0.3001 -0.3612
   22ccc    H33  986   2.514   5.036   5.747 -1.5066 -0.2877 -0.2662
   22ccc    H34  987   2.784   4.878   5.770  0.5748 -0.7159  0.4108
   22ccc    H35  988   2.411   4.879   5.177 -0.1760  0.7367  2.7145
   22ccc    H36  989   2.565   4.808   5.123 -0.8531 -0.8722 -0.4595
   22ccc    O12  990   2.562   5.016   5.142  0.2188  0.6666 -0.1230
   22ccc    H37  991   2.658   5.002   5.143  0.2714  1.0152  0.3956
   22ccc    O13  992   2.675   4.810   5.351 -0.8303  0.2862  0.1730
   22ccc    H38  993   2.861   4.698   5.379  0.3126  1.6960  0.3264
   22ccc    H39  994   2.576   5.060   5.399  0.6674 -0.2435 -1.0489
   22ccc     O5  995   2.377   5.019   5.401 -0.0425  0.5836  0.0390
   22ccc    H40  996   2.363   5.095   5.460  0.5615 -0.6658  1.8622
   22ccc     N4  997   2.703   4.832   5.729  0.3143  0.1562 -0.0569
   23ccc     N1  998   3.020   4.960   5.549  0.1416 -0.3118 -0.2345
   23ccc     H4  999   2.985   5.008   5.631 -0.5923  0.4823 -0.9828
   23ccc     C3 1000   2.980   5.007   5.406 -0.6613  0.7980  0.1457
   23ccc     H5 1001   3.069   5.031   5.347 -1.2237  1.3421 -0.5036
   23ccc     C4 1002   2.887   5.125   5.404  0.0445 -0.0107 -0.5956
   23ccc     H6 1003   2.926   4.922   5.362  1.1916 -0.5300  0.3137
   23ccc     H7 1004   2.795   5.095   5.455 -0.1646 -1.4269 -1.7360
   23ccc     H8 1005   2.860   5.144   5.300 -1.7356  1.1890  0.0366
   23ccc     N2 1006   2.943   5.245   5.465  0.3514  0.1162  0.5777
   23ccc     C5 1007   3.040   5.306   5.370  0.3670  0.2160 -0.0644
   23ccc     C6 1008   2.835   5.344   5.493 -0.6526 -0.0009  0.1572
   23ccc     H9 1009   2.882   5.440   5.516 -0.1863 -0.3145  0.5495
   23ccc     C7 1010   2.749   5.307   5.604  0.0558  0.2424 -0.8228
   23ccc    H10 1011   2.775   5.355   5.402 -0.6835 -1.2491  0.0056
   23ccc    H11 1012   2.805   5.281   5.694  2.3087  1.0073 -1.9158
   23ccc    H12 1013   2.698   5.217   5.566  2.7310 -1.6413 -0.2703
   23ccc     C8 1014   2.647   5.418   5.628 -0.3909 -0.4005  0.0614
   23ccc     O2 1015   2.692   5.525   5.673 -0.1476  0.0414  0.2225
   23ccc    H13 1016   2.992   5.334   5.275  0.1108 -2.5880 -0.8536
   23ccc    H14 1017   3.117   5.231   5.351  0.9346  0.1105  2.3203
   23ccc     C9 1018   3.114   5.425   5.431 -0.0868  0.0788 -0.1737
   23ccc    H15 1019   3.137   5.408   5.537  1.0206 -0.0579 -0.4175
   23ccc    H16 1020   3.059   5.519   5.419 -0.3462  0.0791  0.9549
   23ccc    C10 1021   3.232   5.441   5.348  0.1234  0.0173  0.0502
   23ccc     O4 1022   3.247   5.523   5.259 -0.1086  0.5363 -0.2892
   23ccc    C11 1023   2.162   5.620   5.533  0.1404  0.0924 -1.0032
   23ccc    C12 1024   2.153   5.466   5.548  0.1150  0.4893 -0.1813
   23ccc    H17 1025   2.169   5.655   5.430  1.0778 -0.1132 -1.0181
   23ccc    C13 1026   2.292   5.397   5.530  0.4726  0.2894 -0.1534
   23ccc    C14 1027   2.405   5.463   5.612  0.1279  0.0200  0.0640
   23ccc    C15 1028   2.406   5.615   5.594 -0.8554 -0.1745  0.8271
   23ccc    H18 1029   2.373   5.435   5.713 -1.6127 -2.7790 -1.1391
   23ccc    H19 1030   2.320   5.420   5.427  1.4144  0.7512  0.1972
   23ccc    H20 1031   2.438   5.634   5.491 -1.4656  3.0303  1.1391
   23ccc     O1 1032   2.487   5.681   5.693 -0.1663 -0.7396 -0.2551
   23ccc     O6 1033   2.284   5.259   5.560 -0.3473 -0.1386 -0.1008
   23ccc    C16 1034   2.038   5.686   5.591  0.0862  0.0676 -0.0209
   23ccc    H21 1035   2.222   5.237   5.631  0.6964 -0.1347  0.8260
   23ccc    H22 1036   2.501   5.284   5.594 -0.8025  0.0746 -1.9986
   23ccc    H23 1037   1.956   5.669   5.520 -0.3456  0.5467  0.3553
   23ccc    H24 1038   2.057   5.794   5.581 -1.9353  0.3890 -0.9026
   23ccc     O7 1039   1.998   5.649   5.722 -0.6205 -0.0204 -0.7241
   23ccc    H25 1040   1.905   5.676   5.731 -1.0786 -0.3033 -3.7038
   23ccc     O8 1041   2.273   5.670   5.621 -0.1407 -0.0959 -0.1690
   23ccc    H26 1042   2.570   5.631   5.684 -0.5239 -1.4553  0.3145
   23ccc    H27 1043   2.126   5.445   5.653  2.0978 -2.1979 -0.0930
   23ccc     O9 1044   2.056   5.400   5.466  0.3873  0.1094 -0.0439
   23ccc    H28 1045   2.100   5.319   5.437 -1.3647 -0.5820 -0.9062
   23ccc     N3 1046   2.526   5.383   5.588  0.3721 -0.0334  0.0717
   23ccc    C17 1047   3.565   5.081   5.600  0.8361 -0.4273  0.2392
   23ccc    C18 1048   3.533   5.221   5.666  0.4254 -0.2780 -0.4846
   23ccc    H29 1049   3.657   5.089   5.540 -0.5163 -1.8615 -2.1897
   23ccc    C19 1050   3.472   5.329   5.575  0.3454  0.6111 -0.6185
   23ccc    C20 1051   3.369   5.266   5.477  0.2049 -0.0608  0.4439
   23ccc    C21 1052   3.422   5.135   5.415  0.3959 -0.2076  0.5814
   23ccc    H30 1053   3.280   5.240   5.537 -0.5416 -0.0706 -0.6252
   23ccc    H31 1054   3.555   5.371   5.516  0.5585  0.1998 -0.6170
   23ccc    H32 1055   3.509   5.144   5.349 -0.2554  2.5107 -0.0298
   23ccc    O10 1056   3.316   5.063   5.347 -0.0853  0.5820  0.5359
   23ccc    O11 1057   3.422   5.445   5.653 -0.0610 -0.2116 -0.2822
   23ccc    C22 1058   3.589   4.978   5.705  0.7747  0.1469  0.3506
   23ccc    H33 1059   3.392   5.520   5.599 -0.1973  0.7344  1.0793
   23ccc    H34 1060   3.429   5.404   5.335  0.3343 -1.2451 -0.1005
   23ccc    H35 1061   3.652   5.021   5.784 -1.4411 -0.2238  2.4314
   23ccc    H36 1062   3.618   4.881   5.662  0.3072  0.1430  0.0391
   23ccc    O12 1063   3.469   4.965   5.777  0.4911 -0.1245 -0.3020
   23ccc    H37 1064   3.394   4.966   5.714 -0.9543 -0.5683  1.3085
   23ccc    O13 1065   3.450   5.044   5.524  0.2165  0.1177  0.7408
   23ccc    H38 1066   3.362   4.978   5.337  0.3147  0.8761 -0.2381
   23ccc    H39 1067   3.457   5.211   5.745  0.8709  0.3941  0.0456
   23ccc     O5 1068   3.659   5.277   5.713 -0.0768  0.5444 -0.0128
   23ccc    H40 1069   3.627   5.343   5.777 -0.6831 -1.3481  1.7326
   23ccc     N4 1070   3.341   5.373   5.376  0.1909 -0.3274  0.3185
   24ccc     N1 1071   2.619   5.572   6.979 -0.2807 -0.3116 -0.1674
   24ccc     H4 1072   2.692   5.608   6.919 -0.3214 -1.7233 -1.1142
   24ccc     C3 1073   2.589   5.637   7.117 -0.4101  0.8353  0.5356
   24ccc     H5 1074   2.494   5.691   7.109 -0.7700  0.0303 -1.0517
   24ccc     C4 1075   2.695   5.738   7.171  0.2462 -0.4617 -0.5676
   24ccc     H6 1076   2.570   5.557   7.189  0.0118 -0.7585 -1.0332
   24ccc     H7 1077   2.669   5.750   7.277  0.6888  1.0306 -0.6101
   24ccc     H8 1078   2.671   5.835   7.125 -1.4835 -0.8679 -0.6150
   24ccc     N2 1079   2.825   5.698   7.148 -0.2710 -0.2506  0.6819
   24ccc     C5 1080   2.913   5.815   7.191  0.1759 -0.2355 -0.9452
   24ccc     C6 1081   2.864   5.575   7.207 -0.1374  0.3251 -0.7067
   24ccc     H9 1082   2.868   5.589   7.316 -2.1917  1.4548 -0.7139
   24ccc     C7 1083   2.990   5.539   7.139 -0.9331 -0.6060 -0.7055
   24ccc    H10 1084   2.797   5.491   7.186 -0.3300 -0.0165  1.0881
   24ccc    H11 1085   3.068   5.575   7.207 -0.7637 -2.5155  0.1953
   24ccc    H12 1086   2.995   5.584   7.039 -0.1636  0.2589 -0.2961
   24ccc     C8 1087   3.011   5.391   7.119  0.4397  0.0519 -0.9583
   24ccc     O2 1088   2.942   5.301   7.172 -0.3420 -0.0070  0.4616
   24ccc    H13 1089   3.009   5.778   7.229 -0.4266 -0.0642  0.8429
   24ccc    H14 1090   2.878   5.868   7.281  1.6414 -1.4075  0.3716
   24ccc     C9 1091   2.923   5.930   7.098 -0.4090 -0.3779 -0.5569
   24ccc    H15 1092   2.942   6.017   7.163  1.5745 -0.9540 -0.2818
   24ccc    H16 1093   2.830   5.954   7.046 -1.3587 -3.9442 -0.7770
   24ccc    C10 1094   3.028   5.919   6.995  0.8375 -0.4254  0.0824
   24ccc     O4 1095   3.092   5.818   6.975  0.0637 -0.2108  0.2419
   24ccc    C11 1096   3.202   4.937   7.153  0.7119  0.4270 -0.7119
   24ccc    C12 1097   3.164   4.971   7.004  0.1792  0.0209  0.8276
   24ccc    H17 1098   3.112   4.917   7.213  0.0137 -2.3528 -2.4760
   24ccc    C13 1099   3.096   5.109   6.990 -0.3125  0.6207 -0.0667
   24ccc    C14 1100   3.183   5.218   7.060  0.2671 -0.3870  0.6670
   24ccc    C15 1101   3.228   5.167   7.208  0.5073  0.4064 -0.0515
   24ccc    H18 1102   3.271   5.228   6.996 -0.4489  1.4775 -0.0786
   24ccc    H19 1103   2.992   5.103   7.027 -0.0896 -0.6248  0.4039
   24ccc    H20 1104   3.140   5.172   7.272 -1.5620  2.4492 -2.7991
   24ccc     O1 1105   3.322   5.252   7.266  1.0313 -0.1492 -0.0377
   24ccc     O6 1106   3.082   5.139   6.850  0.1673  0.2396 -0.1117
   24ccc    C16 1107   3.282   4.803   7.160  0.3916  0.0306 -0.7795
   24ccc    H21 1108   3.009   5.098   6.801 -0.7940  1.0932  0.5674
   24ccc    H22 1109   3.184   5.429   7.038  0.8481 -0.4462  1.3764
   24ccc    H23 1110   3.367   4.801   7.090  2.2847  1.8804  1.3104
   24ccc    H24 1111   3.221   4.719   7.125  0.0740  1.4019 -3.9109
   24ccc     O7 1112   3.333   4.785   7.302 -0.4093  0.0511 -0.3110
   24ccc    H25 1113   3.351   4.868   7.351 -1.2436  0.3738 -0.5408
   24ccc     O8 1114   3.287   5.036   7.206 -0.1499  0.0691 -0.2741
   24ccc    H26 1115   3.400   5.229   7.212  1.5883 -0.0973  0.7289
   24ccc    H27 1116   3.257   4.969   6.947 -0.6050 -0.0606 -0.4859
   24ccc     O9 1117   3.077   4.867   6.963 -0.2453 -0.3570  0.3350
   24ccc    H28 1118   3.128   4.790   6.931  0.7560 -0.3373  1.7727
   24ccc     N3 1119   3.119   5.352   7.054  0.2871 -0.1766  0.4824
   24ccc    C17 1120   3.139   6.184   6.530  0.9629  0.0280 -0.0018
   24ccc    C18 1121   3.240   6.221   6.644  0.3604  0.0816 -0.0733
   24ccc    H29 1122   3.060   6.260   6.528  1.9382  1.0597 -1.7179
   24ccc    C19 1123   3.182   6.195   6.785  0.4216  0.7522 -0.2234
   24ccc    C20 1124   3.127   6.052   6.802 -0.0747  0.4666  0.4839
   24ccc    C21 1125   3.019   6.026   6.683 -0.2691  0.1590 -0.3010
   24ccc    H30 1126   3.213   5.985   6.805 -0.2234  0.2370  3.8452
   24ccc    H31 1127   3.097   6.260   6.810 -0.6828 -0.5637 -0.4150
   24ccc    H32 1128   2.923   6.079   6.693 -1.1100 -0.4462 -3.8097
   24ccc    O10 1129   2.984   5.891   6.683 -0.3419  0.3012 -0.4091
   24ccc    O11 1130   3.297   6.215   6.877 -0.0122  0.1607 -0.0473
   24ccc    C22 1131   3.202   6.173   6.388 -0.2468  0.1214 -0.2533
   24ccc    H33 1132   3.301   6.149   6.947  1.2016  0.0876 -0.1685
   24ccc    H34 1133   2.989   6.115   6.947 -0.7486 -0.0244 -0.1212
   24ccc    H35 1134   3.199   6.272   6.341 -0.0724 -0.1480 -0.8297
   24ccc    H36 1135   3.146   6.098   6.331 -1.4015  0.9120 -0.1970
   24ccc    O12 1136   3.337   6.134   6.389  0.0222  0.0221  0.1520
   24ccc    H37 1137   3.331   6.037   6.379  0.3848 -0.0739  0.8107
   24ccc    O13 1138   3.078   6.057   6.555  0.3434  0.2105 -0.0457
   24ccc    H38 1139   2.888   5.895   6.698 -0.5936  2.2833 -2.0995
   24ccc    H39 1140   3.335   6.166   6.630 -0.4603 -3.8594  5.9052
   24ccc     O5 1141   3.264   6.362   6.639  0.1493 -0.4168  0.1577
   24ccc    H40 1142   3.346   6.370   6.691  0.8607 -0.3668 -0.9539
   24ccc     N4 1143   3.056   6.039   6.935 -0.7486  0.0450 -0.6119
   25ccc     N1 1144   2.346   5.453   6.279 -0.1018 -0.0477  0.3957
   25ccc     H4 1145   2.302   5.362   6.286  1.1347 -0.6769  0.1462
   25ccc     C3 1146   2.324   5.536   6.154 -0.0267  0.3529 -0.3443
   25ccc     H5 1147   2.231   5.594   6.165  0.5917  2.1528 -3.3969
   25ccc     C4 1148   2.323   5.458   6.029 -0.2940  0.0762  0.0165
   25ccc     H6 1149   2.402   5.613   6.146 -0.3126  0.6809 -0.0184
   25ccc     H7 1150   2.348   5.521   5.942 -1.3795  0.0210 -0.3514
   25ccc     H8 1151   2.226   5.413   6.005  0.4669 -1.5557 -0.1028
   25ccc     N2 1152   2.436   5.364   6.025 -0.3887  0.4948  0.4486
   25ccc     C5 1153   2.410   5.244   5.938 -0.0862 -0.2807 -0.0755
   25ccc     C6 1154   2.567   5.428   6.008  0.6339 -0.1034 -0.6253
   25ccc     H9 1155   2.577   5.442   5.899 -1.9332 -1.2818 -1.1007
   25ccc     C7 1156   2.680   5.338   6.063 -0.4050 -0.1556  1.0060
   25ccc    H10 1157   2.553   5.522   6.063  1.2008  1.6730 -3.3207
   25ccc    H11 1158   2.664   5.234   6.030 -0.2349  0.0360  0.2933
   25ccc    H12 1159   2.672   5.341   6.172  3.2287 -2.4898  1.5527
   25ccc     C8 1160   2.811   5.387   6.007  0.1326 -0.3659  0.0056
   25ccc     O2 1161   2.895   5.322   5.956 -0.2816  0.1807 -0.5041
   25ccc    H13 1162   2.503   5.207   5.893  0.3406 -1.5806  1.7616
   25ccc    H14 1163   2.343   5.262   5.853 -1.5757  0.9861  1.3093
   25ccc     C9 1164   2.349   5.149   6.033  0.6795 -0.2019  0.7027
   25ccc    H15 1165   2.250   5.189   6.057 -0.5620 -0.6663 -3.0480
   25ccc    H16 1166   2.406   5.153   6.127  0.8365  0.7037  0.5795
   25ccc    C10 1167   2.333   5.016   5.975 -0.2341 -0.2665 -0.0595
   25ccc     O4 1168   2.417   4.971   5.899 -0.6220  0.1106 -0.4679
   25ccc    C11 1169   3.207   5.678   5.861 -0.1273 -0.0401 -0.1326
   25ccc    C12 1170   3.075   5.718   5.791  0.3479  0.3108  0.4424
   25ccc    H17 1171   3.246   5.585   5.819 -0.5168 -0.2340 -0.0698
   25ccc    C13 1172   2.957   5.633   5.836 -0.3763 -0.0050 -0.5450
   25ccc    C14 1173   2.946   5.607   5.988 -0.5765  0.2032 -0.2634
   25ccc    C15 1174   3.084   5.568   6.039 -0.1370  0.1706  0.0171
   25ccc    H18 1175   2.928   5.704   6.036  0.0217  1.2620 -2.0776
   25ccc    H19 1176   2.967   5.538   5.782  0.8327 -0.9608  1.2474
   25ccc    H20 1177   3.115   5.473   5.994  0.0295 -0.2141  0.9245
   25ccc     O1 1178   3.095   5.562   6.186  0.4340 -0.1141  0.1274
   25ccc     O6 1179   2.834   5.706   5.803 -0.8705 -0.5346 -0.4039
   25ccc    C16 1180   3.319   5.774   5.837 -0.9102  0.1530  0.6425
   25ccc    H21 1181   2.778   5.634   5.770 -1.5291  0.0450 -0.5567
   25ccc    H22 1182   2.748   5.574   6.042  1.4204  1.8079  2.1506
   25ccc    H23 1183   3.335   5.794   5.730 -0.8855 -0.7404  0.4716
   25ccc    H24 1184   3.412   5.729   5.874  2.2652  2.8163 -3.1725
   25ccc     O7 1185   3.290   5.898   5.897 -0.0478  0.0349 -0.6187
   25ccc    H25 1186   3.290   5.891   5.994 -3.2244  0.9914 -0.4346
   25ccc     O8 1187   3.182   5.669   6.001 -0.0320  0.3999 -0.1605
   25ccc    H26 1188   3.084   5.654   6.216  1.9607 -0.3631  1.6101
   25ccc    H27 1189   3.045   5.822   5.808 -1.8885 -0.0579 -0.8331
   25ccc     O9 1190   3.090   5.704   5.651  0.3820  0.5138  0.6212
   25ccc    H28 1191   3.002   5.711   5.611 -0.6415 -1.2059  2.3828
   25ccc     N3 1192   2.832   5.518   6.034  0.1174 -0.0099 -0.2132
   25ccc    C17 1193   2.189   4.546   5.871 -0.0966  0.3277  0.3493
   25ccc    C18 1194   2.130   4.587   6.009 -0.2514  0.9014 -0.1097
   25ccc    H29 1195   2.296   4.521   5.879 -0.0253 -0.7714 -2.7140
   25ccc    C19 1196   2.191   4.717   6.051 -0.0541 -0.2048  0.2444
   25ccc    C20 1197   2.161   4.832   5.946 -1.2949  0.7915 -0.2097
   25ccc    C21 1198   2.222   4.784   5.806  0.2808  0.0543  0.0291
   25ccc    H30 1199   2.053   4.844   5.933 -1.3681  1.7327  1.0704
   25ccc    H31 1200   2.298   4.717   6.073 -0.1318  3.1421  1.1570
   25ccc    H32 1201   2.330   4.768   5.801  0.4426  1.2577 -0.8006
   25ccc    O10 1202   2.181   4.875   5.705  0.3625  0.3680 -0.3725
   25ccc    O11 1203   2.112   4.761   6.160 -0.4354  0.8428 -0.5793
   25ccc    C22 1204   2.109   4.431   5.814  0.3250  0.2598 -0.0638
   25ccc    H33 1205   2.168   4.779   6.238  0.1738  1.9006 -1.2361
   25ccc    H34 1206   2.150   5.009   6.056 -0.7754  0.1927 -1.2446
   25ccc    H35 1207   2.004   4.454   5.790  0.1612  0.7956  1.1280
   25ccc    H36 1208   2.108   4.357   5.895  0.6598  0.5427  0.1996
   25ccc    O12 1209   2.171   4.378   5.697  0.8284  0.4588  0.0037
   25ccc    H37 1210   2.104   4.315   5.666  3.0866 -1.6526 -0.9499
   25ccc    O13 1211   2.161   4.654   5.781  0.2978 -0.2063  0.2795
   25ccc    H38 1212   2.206   4.964   5.734 -0.7959  1.5231 -2.6770
   25ccc    H39 1213   2.023   4.606   5.995 -0.4348  1.9618  2.3233
   25ccc     O5 1214   2.158   4.484   6.107  0.8619  0.5522 -0.3039
   25ccc    H40 1215   2.124   4.514   6.194 -0.0383  1.7467 -1.0478
   25ccc     N4 1216   2.214   4.961   5.993  0.2487 -0.7555  0.4282
   26ccc     N1 1217   4.641   4.544   5.721 -0.0654  0.2835 -0.1958
   26ccc     H4 1218   4.624   4.630   5.670  2.2621  0.8866 -0.0534
   26ccc     C3 1219   4.643   4.420   5.648 -0.1437 -0.3870 -0.1329
   26ccc     H5 1220   4.738   4.369   5.668  0.5788  1.2682  0.8840
   26ccc     C4 1221   4.618   4.440   5.495  0.2490 -0.1637 -0.1021
   26ccc     H6 1222   4.562   4.359   5.690 -1.7940  1.8097  0.0846
   26ccc     H7 1223   4.510   4.455   5.485  0.5350  3.4357  0.7339
   26ccc     H8 1224   4.654   4.344   5.458  1.5630  0.2440  0.0629
   26ccc     N2 1225   4.679   4.556   5.430  0.2592  1.1903  0.0990
   26ccc     C5 1226   4.646   4.568   5.288 -0.0749  0.6580 -0.3059
   26ccc     C6 1227   4.821   4.548   5.458  0.0822  0.6940 -0.5897
   26ccc     H9 1228   4.833   4.537   5.566 -0.3662  1.0111 -0.5050
   26ccc     C7 1229   4.895   4.679   5.424 -0.1229 -0.1943 -0.2585
   26ccc    H10 1230   4.875   4.466   5.409  0.3681  0.0763  0.7217
   26ccc    H11 1231   4.842   4.767   5.463  0.4626  0.8429 -1.7130
   26ccc    H12 1232   4.890   4.702   5.316  2.5332 -1.3270 -0.6858
   26ccc     C8 1233   5.032   4.678   5.480  0.2305 -0.2744 -0.8180
   26ccc     O2 1234   5.100   4.580   5.512 -0.1218 -0.2891 -0.0382
   26ccc    H13 1235   4.694   4.486   5.233  0.4163  0.2529  0.6961
   26ccc    H14 1236   4.693   4.662   5.256 -0.3595  0.2462 -2.0024
   26ccc     C9 1237   4.494   4.585   5.276  0.6359 -0.2205 -0.6280
   26ccc    H15 1238   4.456   4.636   5.366  0.6311 -0.0945 -0.7004
   26ccc    H16 1239   4.439   4.492   5.260  0.6214 -0.1999 -0.7000
   26ccc    C10 1240   4.466   4.674   5.160 -0.1593  0.4150 -0.9437
   26ccc     O4 1241   4.474   4.791   5.169 -0.4356  0.0768 -0.0287
   26ccc    C11 1242   5.521   4.745   5.488 -0.2179 -0.3093 -0.4162
   26ccc    C12 1243   5.455   4.790   5.355  0.0481 -0.2899 -0.7140
   26ccc    H17 1244   5.533   4.637   5.507  4.1956  0.1862  0.7215
   26ccc    C13 1245   5.301   4.763   5.362 -0.8686 -0.1847 -0.0875
   26ccc    C14 1246   5.241   4.826   5.486  0.0189  0.2679  0.1188
   26ccc    C15 1247   5.310   4.766   5.610  0.0418 -0.1399  0.2013
   26ccc    H18 1248   5.269   4.931   5.497  1.3770 -0.1998  1.4794
   26ccc    H19 1249   5.293   4.654   5.368 -1.0426 -0.2696 -1.5268
   26ccc    H20 1250   5.283   4.660   5.612 -1.6879  0.1960 -1.8712
   26ccc     O1 1251   5.263   4.824   5.720  0.1651 -0.8954 -0.7483
   26ccc     O6 1252   5.228   4.796   5.237 -0.6497 -0.0654 -0.2596
   26ccc    C16 1253   5.666   4.800   5.506  0.0512  0.1660  0.6689
   26ccc    H21 1254   5.230   4.893   5.229 -2.2873  0.2056  1.7785
   26ccc    H22 1255   5.054   4.862   5.412  1.1793 -1.2526 -2.1221
   26ccc    H23 1256   5.650   4.894   5.560 -1.6415 -0.3303  1.1226
   26ccc    H24 1257   5.734   4.816   5.422  2.4463  0.6812  2.5890
   26ccc     O7 1258   5.737   4.716   5.600 -0.1407  0.0814  0.4310
   26ccc    H25 1259   5.682   4.722   5.680 -1.0025  1.0027 -0.2081
   26ccc     O8 1260   5.450   4.804   5.598 -0.3670 -0.3883  0.1833
   26ccc    H26 1261   5.173   4.792   5.737  0.2126 -0.4224  0.5097
   26ccc    H27 1262   5.459   4.900   5.347 -0.9298 -0.2184 -0.3062
   26ccc     O9 1263   5.501   4.714   5.250 -0.5381  0.1841 -0.2945
   26ccc    H28 1264   5.508   4.621   5.278 -0.8827 -0.6370 -2.6385
   26ccc     N3 1265   5.088   4.801   5.486 -0.3461  0.4311  0.1020
   26ccc    C17 1266   4.616   4.635   4.660  0.1050 -0.0301 -0.5405
   26ccc    C18 1267   4.462   4.652   4.657 -0.0168 -0.0829  0.1921
   26ccc    H29 1268   4.647   4.530   4.672 -1.5321 -0.6928 -1.7303
   26ccc    C19 1269   4.405   4.606   4.796  0.0893 -0.1833 -0.8729
   26ccc    C20 1270   4.484   4.666   4.914 -0.0345 -0.3751 -0.0216
   26ccc    C21 1271   4.639   4.665   4.894 -0.8720 -0.2165 -0.3136
   26ccc    H30 1272   4.457   4.772   4.921 -1.3236 -0.6568 -0.4044
   26ccc    H31 1273   4.411   4.497   4.795 -1.8285 -0.3163 -1.2700
   26ccc    H32 1274   4.666   4.559   4.902  0.8731  0.1532 -0.7561
   26ccc    O10 1275   4.705   4.744   4.991  0.6715  0.7124  0.6282
   26ccc    O11 1276   4.269   4.650   4.816  0.0316  0.3293 -0.2574
   26ccc    C22 1277   4.687   4.685   4.536  0.8368 -0.2687  0.4551
   26ccc    H33 1278   4.267   4.740   4.851  0.9434  0.6587 -1.0180
   26ccc    H34 1279   4.459   4.509   5.051 -1.4020 -0.1360 -1.7418
   26ccc    H35 1280   4.658   4.791   4.536 -0.9987 -0.7289 -0.6705
   26ccc    H36 1281   4.636   4.647   4.447  2.0254 -0.2185 -0.2696
   26ccc    O12 1282   4.826   4.653   4.518  0.1755  0.0242  0.4391
   26ccc    H37 1283   4.875   4.687   4.595  0.6214 -2.0113  1.1223
   26ccc    O13 1284   4.682   4.713   4.761  0.2652  0.2590 -0.6546
   26ccc    H38 1285   4.796   4.712   4.976 -0.1974 -2.1399  0.8989
   26ccc    H39 1286   4.437   4.759   4.648 -0.0528  0.0500  1.6906
   26ccc     O5 1287   4.398   4.579   4.547  0.1991  0.3634 -0.7755
   26ccc    H40 1288   4.329   4.637   4.509 -1.2233 -1.6626 -1.4601
   26ccc     N4 1289   4.442   4.609   5.046 -0.5145  0.1352  0.0167
   27ccc     N1 1290   4.953   5.120   6.300 -0.2991  0.5860 -0.1528
   27ccc     H4 1291   4.868   5.102   6.353  0.1610 -2.2030 -0.1819
   27ccc     C3 1292   5.035   5.244   6.324 -0.0443 -0.2805 -0.5822
   27ccc     H5 1293   5.000   5.286   6.419  1.2615 -0.5368  0.0212
   27ccc     C4 1294   5.020   5.349   6.207 -0.1220 -0.2074 -0.0909
   27ccc     H6 1295   5.139   5.212   6.335 -0.6141 -1.8429  0.6082
   27ccc     H7 1296   5.065   5.305   6.116 -1.7226 -0.6979 -0.6707
   27ccc     H8 1297   5.080   5.435   6.240  2.3910 -1.5722 -0.8137
   27ccc     N2 1298   4.879   5.379   6.190 -0.3784  0.1687 -0.2800
   27ccc     C5 1299   4.822   5.458   6.301 -0.2628 -0.1508 -0.5202
   27ccc     C6 1300   4.852   5.452   6.071  0.0667  0.0655  0.8904
   27ccc     H9 1301   4.745   5.472   6.066  0.3953  1.7058 -0.6655
   27ccc     C7 1302   4.876   5.359   5.943 -0.9615  0.3585  0.2104
   27ccc    H10 1303   4.893   5.553   6.058 -3.5461  1.4934 -0.5645
   27ccc    H11 1304   4.824   5.262   5.949  0.5222 -0.7405 -2.6620
   27ccc    H12 1305   4.983   5.345   5.924 -1.2052  2.1844 -3.3122
   27ccc     C8 1306   4.802   5.408   5.823 -0.1439  0.0161 -0.0449
   27ccc     O2 1307   4.687   5.431   5.815  0.3049 -0.4185  0.4086
   27ccc    H13 1308   4.848   5.562   6.278  1.2162 -0.5690 -0.8945
   27ccc    H14 1309   4.860   5.422   6.398 -1.1682 -1.5380 -0.6593
   27ccc     C9 1310   4.670   5.442   6.317 -0.2470 -0.6472 -0.5970
   27ccc    H15 1311   4.643   5.337   6.333 -1.0825 -0.3238  0.2033
   27ccc    H16 1312   4.616   5.478   6.229 -1.4664 -1.6036 -0.2649
   27ccc    C10 1313   4.622   5.520   6.434 -0.0941  0.0542  0.1931
   27ccc     O4 1314   4.586   5.635   6.417  0.4390  0.1348  0.7299
   27ccc    C11 1315   4.732   5.711   5.412 -0.1153  0.8285 -0.0021
   27ccc    C12 1316   4.869   5.743   5.495  0.5168 -0.0350 -0.5555
   27ccc    H17 1317   4.647   5.743   5.473  0.3355  0.6313  0.7400
   27ccc    C13 1318   4.870   5.651   5.626  0.7228 -0.2312  0.2154
   27ccc    C14 1319   4.851   5.497   5.595  0.2894  0.3410  0.4562
   27ccc    C15 1320   4.717   5.488   5.515 -0.4251  0.9051 -0.1368
   27ccc    H18 1321   4.926   5.494   5.516  0.7567  0.3401  0.8908
   27ccc    H19 1322   4.785   5.685   5.687  0.8579 -0.0860  0.3248
   27ccc    H20 1323   4.632   5.526   5.574  0.2026 -1.4509  2.5171
   27ccc     O1 1324   4.681   5.358   5.464 -0.2873 -0.9780  0.6501
   27ccc     O6 1325   4.994   5.665   5.694 -0.1815 -0.0819 -0.5229
   27ccc    C16 1326   4.724   5.766   5.271 -0.2613  0.2587  0.6472
   27ccc    H21 1327   5.001   5.758   5.721 -3.1782  0.6879 -1.9635
   27ccc    H22 1328   4.977   5.412   5.718 -0.6385  1.6387  0.1016
   27ccc    H23 1329   4.751   5.872   5.280  3.3580 -0.4291 -0.5866
   27ccc    H24 1330   4.623   5.754   5.229 -0.5595  2.2588  0.6675
   27ccc     O7 1331   4.814   5.710   5.173 -0.6084  0.0717 -0.5330
   27ccc    H25 1332   4.808   5.613   5.177 -0.4141 -0.0447 -2.3829
   27ccc     O8 1333   4.733   5.565   5.397 -0.0130  0.1705  0.3956
   27ccc    H26 1334   4.600   5.381   5.414  0.3467 -0.1761 -0.0261
   27ccc    H27 1335   4.957   5.723   5.433  0.6723  0.9963 -0.6853
   27ccc     O9 1336   4.864   5.875   5.532 -0.5597  0.4256 -0.4689
   27ccc    H28 1337   4.776   5.886   5.572 -0.3819 -0.7577  0.2800
   27ccc     N3 1338   4.877   5.400   5.707 -0.4059 -0.4637 -0.1252
   27ccc    C17 1339   4.581   5.517   6.974 -0.8826  0.0095 -0.6732
   27ccc    C18 1340   4.678   5.601   6.888 -0.2932 -0.8803  0.2043
   27ccc    H29 1341   4.642   5.434   7.012 -0.6436 -0.3688 -1.8479
   27ccc    C19 1342   4.708   5.531   6.757 -0.3078 -0.3057 -0.1668
   27ccc    C20 1343   4.577   5.509   6.679  0.9312  0.6693 -0.1909
   27ccc    C21 1344   4.487   5.416   6.768 -0.5115 -0.4395  0.4527
   27ccc    H30 1345   4.528   5.608   6.674 -0.9177 -0.0174  2.2365
   27ccc    H31 1346   4.762   5.437   6.777 -1.3990 -1.0411 -0.5850
   27ccc    H32 1347   4.541   5.320   6.774 -0.4363 -0.3967  0.4556
   27ccc    O10 1348   4.365   5.392   6.713  0.2732 -0.1020 -0.2654
   27ccc    O11 1349   4.792   5.621   6.673  0.4287  0.0574 -0.8678
   27ccc    C22 1350   4.532   5.594   7.098 -0.5600 -0.1832  0.2024
   27ccc    H33 1351   4.750   5.708   6.662 -1.3076 -0.3739  1.5814
   27ccc    H34 1352   4.654   5.357   6.566 -1.1473 -0.5273  1.1551
   27ccc    H35 1353   4.483   5.685   7.062  0.3984  0.3377  0.1896
   27ccc    H36 1354   4.610   5.620   7.170 -0.2131 -2.0402  0.5551
   27ccc    O12 1355   4.440   5.513   7.168 -0.3110  0.0288 -0.6013
   27ccc    H37 1356   4.436   5.535   7.263  2.4454 -1.3486 -0.0702
   27ccc    O13 1357   4.466   5.475   6.898  0.1672  0.1395 -0.0274
   27ccc    H38 1358   4.376   5.337   6.634 -0.3704 -1.4421  0.5507
   27ccc    H39 1359   4.639   5.701   6.864  1.2633 -0.6971 -1.8206
   27ccc     O5 1360   4.798   5.623   6.963  0.0766 -0.4750 -0.1998
   27ccc    H40 1361   4.847   5.670   6.893 -0.7959 -0.8104 -1.0713
   27ccc     N4 1362   4.610   5.447   6.548  0.8166  0.2548 -0.2033
   28ccc     N1 1363   4.113   5.298   6.252 -0.0197 -0.8153  0.4272
   28ccc     H4 1364   4.044   5.362   6.213  0.2749 -0.1043  1.0644
   28ccc     C3 1365   4.098   5.271   6.403 -0.1723 -0.2236  0.1920
   28ccc     H5 1366   3.998   5.231   6.425 -0.4273 -0.1978 -0.8671
   28ccc     C4 1367   4.127   5.395   6.487  0.3994 -0.2359 -0.1039
   28ccc     H6 1368   4.167   5.189   6.426  0.1525  0.4377  1.7107
   28ccc     H7 1369   4.233   5.415   6.470  0.1872  2.0652  0.8526
   28ccc     H8 1370   4.111   5.371   6.593 -3.4804  0.3122 -0.3890
   28ccc     N2 1371   4.034   5.507   6.446 -0.1512 -0.1796  0.5763
   28ccc     C5 1372   3.890   5.485   6.452  0.6780 -0.0325 -0.8036
   28ccc     C6 1373   4.068   5.634   6.506  0.0742  0.0503  0.4001
   28ccc     H9 1374   3.997   5.709   6.470 -0.0062 -1.2561 -2.4530
   28ccc     C7 1375   4.207   5.663   6.460 -0.3609 -0.4302  0.2879
   28ccc    H10 1376   4.073   5.624   6.616 -0.3404 -1.3114  0.3138
   28ccc    H11 1377   4.208   5.649   6.351  0.9586 -0.1356  0.2540
   28ccc    H12 1378   4.287   5.603   6.504 -0.7045 -0.7838  0.4374
   28ccc     C8 1379   4.244   5.805   6.490 -0.6622  0.2299 -0.1296
   28ccc     O2 1380   4.170   5.892   6.526  0.0706  0.2897 -0.1081
   28ccc    H13 1381   3.855   5.395   6.400 -0.0582 -1.7197  2.3764
   28ccc    H14 1382   3.842   5.574   6.409  0.8005  1.6927  2.3443
   28ccc     C9 1383   3.842   5.473   6.592 -0.0493  0.0576  0.1762
   28ccc    H15 1384   3.875   5.558   6.653 -1.3189  0.1892  0.6982
   28ccc    H16 1385   3.882   5.384   6.643  0.7048  1.4556  2.1244
   28ccc    C10 1386   3.689   5.471   6.588 -0.0087 -0.5441  0.0691
   28ccc     O4 1387   3.621   5.506   6.490 -0.5028 -0.1557 -0.0165
   28ccc    C11 1388   4.498   6.237   6.519 -0.3089  0.2679 -0.1876
   28ccc    C12 1389   4.504   6.151   6.645  0.3945  0.2015 -0.1342
   28ccc    H17 1390   4.400   6.282   6.503 -1.1745 -2.2244 -2.5679
   28ccc    C13 1391   4.415   6.027   6.626 -0.5475 -0.7670  0.7732
   28ccc    C14 1392   4.437   5.957   6.493 -0.1303  0.1944 -0.8574
   28ccc    C15 1393   4.427   6.057   6.376  0.1773 -0.6813  0.6812
   28ccc    H18 1394   4.545   5.937   6.503 -0.3168 -0.2971  0.3122
   28ccc    H19 1395   4.309   6.056   6.631 -0.5508 -0.3790 -0.7872
   28ccc    H20 1396   4.326   6.101   6.373  0.2318 -0.5855 -0.4361
   28ccc     O1 1397   4.462   6.005   6.247  0.0709  0.1668 -0.2528
   28ccc     O6 1398   4.445   5.934   6.732  0.4633  0.2037 -0.4056
   28ccc    C16 1399   4.598   6.355   6.525 -0.4360 -0.3392 -0.0035
   28ccc    H21 1400   4.370   5.873   6.738 -0.0995  0.7459 -1.5430
   28ccc    H22 1401   4.448   5.760   6.467  1.8678  1.8419 -0.8979
   28ccc    H23 1402   4.547   6.424   6.593  0.3314  0.2561 -0.0229
   28ccc    H24 1403   4.600   6.397   6.424 -1.1602 -0.7530 -0.1977
   28ccc     O7 1404   4.730   6.317   6.579  0.5220  0.2938 -0.1951
   28ccc    H25 1405   4.771   6.257   6.514  2.6481 -0.1021  1.3901
   28ccc     O8 1406   4.528   6.160   6.403  0.2073 -0.1460 -0.4710
   28ccc    H26 1407   4.530   5.939   6.269  0.0001 -0.3265 -1.4430
   28ccc    H27 1408   4.610   6.123   6.653 -0.0769 -1.9570 -0.7954
   28ccc     O9 1409   4.456   6.215   6.764 -0.1545  0.0728 -0.4053
   28ccc    H28 1410   4.464   6.148   6.834  0.0879 -0.7744 -1.2298
   28ccc     N3 1411   4.374   5.830   6.476  0.1325  0.0320 -0.1906
   28ccc    C17 1412   3.608   5.421   7.112  0.2211 -0.0377  0.5035
   28ccc    C18 1413   3.633   5.281   7.054 -0.2312 -0.2685  0.4383
   28ccc    H29 1414   3.506   5.447   7.082  0.0806 -0.5578  0.5097
   28ccc    C19 1415   3.628   5.280   6.895 -0.2309 -0.1306  0.5018
   28ccc    C20 1416   3.694   5.398   6.830  0.1465 -0.6404  0.1980
   28ccc    C21 1417   3.677   5.534   6.913 -0.2317  0.2445 -0.2150
   28ccc    H30 1418   3.794   5.356   6.817 -0.1229 -0.5420 -2.8301
   28ccc    H31 1419   3.521   5.292   6.869 -0.6885 -1.9799  1.3613
   28ccc    H32 1420   3.582   5.588   6.901 -0.6376 -0.1504  1.0056
   28ccc    O10 1421   3.777   5.627   6.876  0.2993  0.2765 -0.9022
   28ccc    O11 1422   3.671   5.149   6.853 -0.1794  0.4378  0.1124
   28ccc    C22 1423   3.623   5.430   7.267  0.1033  0.0264  0.3496
   28ccc    H33 1424   3.656   5.144   6.757 -2.0614 -0.5060  0.4037
   28ccc    H34 1425   3.527   5.424   6.699 -0.5494 -3.0820 -0.0528
   28ccc    H35 1426   3.731   5.428   7.289  0.4777  0.1643 -1.2933
   28ccc    H36 1427   3.577   5.341   7.312  2.2845 -1.2084  0.3290
   28ccc    O12 1428   3.575   5.553   7.312  0.0841 -0.4151 -0.3638
   28ccc    H37 1429   3.541   5.541   7.402 -0.2019 -0.2157 -0.4455
   28ccc    O13 1430   3.698   5.515   7.052 -0.4182  0.1093 -0.4300
   28ccc    H38 1431   3.863   5.584   6.890 -0.1356  0.0679  1.8464
   28ccc    H39 1432   3.737   5.257   7.078 -0.2170  0.4638  1.1827
   28ccc     O5 1433   3.536   5.184   7.089  0.2023  0.3358  0.1601
   28ccc    H40 1434   3.575   5.095   7.095 -0.7360 -0.2119 -1.3170
   28ccc     N4 1435   3.629   5.419   6.697 -0.3200 -0.2007  0.4823
   29ccc     N1 1436   3.987   5.906   6.256  0.5705 -0.2569  0.1446
   29ccc     H4 1437   3.942   5.817   6.271  0.3558 -0.1056  0.4009
   29ccc     C3 1438   3.925   6.028   6.325  0.0150 -0.5720  0.2493
   29ccc     H5 1439   3.951   6.033   6.432 -0.5620  1.4467  0.3228
   29ccc     C4 1440   3.769   6.031   6.313 -0.1824 -0.5707  0.0198
   29ccc     H6 1441   3.966   6.116   6.274 -2.2206  0.2802 -0.1863
   29ccc     H7 1442   3.744   6.006   6.209 -0.4571 -1.1744  0.2214
   29ccc     H8 1443   3.732   6.130   6.342 -0.5443 -0.3819 -1.0587
   29ccc     N2 1444   3.708   5.925   6.400 -0.2370  0.1586 -0.5403
   29ccc     C5 1445   3.592   5.848   6.346 -0.6590 -0.4581 -0.1189
   29ccc     C6 1446   3.687   5.969   6.540  0.2551 -0.0145 -0.7452
   29ccc     H9 1447   3.769   6.031   6.577 -2.1694  1.4501  2.5788
   29ccc     C7 1448   3.686   5.849   6.627  0.7450  0.0939  0.3448
   29ccc    H10 1449   3.591   6.019   6.556  1.0575  0.7695  2.0745
   29ccc    H11 1450   3.746   5.862   6.718 -1.4430  0.8346  1.7610
   29ccc    H12 1451   3.714   5.755   6.579 -1.1729 -0.4126  0.1669
   29ccc     C8 1452   3.551   5.824   6.678  0.2810  0.2534 -0.6077
   29ccc     O2 1453   3.497   5.894   6.756  0.2991  0.5447 -0.0687
   29ccc    H13 1454   3.519   5.918   6.304  1.7064  2.4700  0.3266
   29ccc    H14 1455   3.539   5.789   6.423 -4.8856  1.3123 -1.3724
   29ccc     C9 1456   3.640   5.753   6.233  0.6528 -0.7239 -0.3161
   29ccc    H15 1457   3.733   5.708   6.270  0.6908 -0.1704  0.2835
   29ccc    H16 1458   3.654   5.799   6.135 -0.5668 -2.0508 -1.1339
   29ccc    C10 1459   3.533   5.655   6.206  0.1944  0.4377  0.5426
   29ccc     O4 1460   3.411   5.684   6.211 -1.0143  0.1735  0.2216
   29ccc    C11 1461   3.120   5.555   6.536 -0.9546 -0.6594  0.3745
   29ccc    C12 1462   3.176   5.499   6.674  0.8698 -0.4743  0.1400
   29ccc    H17 1463   3.170   5.500   6.455 -1.6241 -2.4202  1.1109
   29ccc    C13 1464   3.315   5.545   6.689 -0.4182  0.4254  0.0775
   29ccc    C14 1465   3.343   5.698   6.648  0.1695  0.3397 -0.2270
   29ccc    C15 1466   3.272   5.740   6.522 -0.5190  0.2029 -0.1546
   29ccc    H18 1467   3.295   5.756   6.729 -0.7251  0.9539 -1.1734
   29ccc    H19 1468   3.378   5.489   6.618 -1.8079 -1.5933  0.3326
   29ccc    H20 1469   3.316   5.689   6.436  0.8814  3.1209 -1.3153
   29ccc     O1 1470   3.276   5.880   6.498 -0.0919 -0.2368 -0.6019
   29ccc     O6 1471   3.369   5.508   6.815 -0.3667 -0.2217 -0.5455
   29ccc    C16 1472   2.970   5.526   6.517  0.4197  0.0688  0.1834
   29ccc    H21 1473   3.322   5.563   6.880  0.1969  0.2355 -0.5149
   29ccc    H22 1474   3.531   5.663   6.557  0.3687  1.3175 -1.1730
   29ccc    H23 1475   2.959   5.418   6.522 -0.4786  0.2130  3.4481
   29ccc    H24 1476   2.938   5.567   6.420 -2.1893 -2.0720  0.0184
   29ccc     O7 1477   2.901   5.601   6.617 -0.4916 -0.3397 -0.1651
   29ccc    H25 1478   2.965   5.670   6.644  2.4200 -3.6504  2.4448
   29ccc     O8 1479   3.136   5.699   6.530  0.0698  0.5477 -0.6673
   29ccc    H26 1480   3.187   5.903   6.531  0.4023 -0.3732  0.8885
   29ccc    H27 1481   3.116   5.533   6.759 -0.2124  1.1013 -1.1689
   29ccc     O9 1482   3.171   5.360   6.683  0.0354  0.5646  0.2974
   29ccc    H28 1483   3.178   5.339   6.777 -2.3641 -0.6846  0.2780
   29ccc     N3 1484   3.493   5.709   6.640  0.7150 -0.4436  0.0097
   29ccc    C17 1485   3.242   5.253   6.099 -0.0234  0.0431 -0.0188
   29ccc    C18 1486   3.336   5.298   5.986 -0.0322  0.0165 -0.7241
   29ccc    H29 1487   3.149   5.312   6.100 -0.6954 -0.9918  1.0367
   29ccc    C19 1488   3.430   5.420   6.014  1.0041  0.1185 -0.6432
   29ccc    C20 1489   3.484   5.415   6.160  0.1348  0.2977 -0.5645
   29ccc    C21 1490   3.361   5.395   6.265  0.2323 -0.4439 -0.0267
   29ccc    H30 1491   3.544   5.323   6.164 -0.0437  0.2104  0.3981
   29ccc    H31 1492   3.367   5.509   6.010 -2.1070 -1.8924  0.5473
   29ccc    H32 1493   3.287   5.476   6.256 -0.3230 -0.9188  0.2282
   29ccc    O10 1494   3.407   5.381   6.398  0.0957 -0.7429 -0.1808
   29ccc    O11 1495   3.542   5.423   5.925 -0.5721  0.6612  0.4208
   29ccc    C22 1496   3.195   5.104   6.087 -0.1238  0.4291  0.1658
   29ccc    H33 1497   3.590   5.506   5.907 -1.8680  1.0002 -1.8034
   29ccc    H34 1498   3.668   5.512   6.161 -0.9362 -2.0058 -1.5195
   29ccc    H35 1499   3.278   5.034   6.095 -1.4974 -1.1208  1.7717
   29ccc    H36 1500   3.156   5.084   5.987  1.7640  2.0469 -0.9537
   29ccc    O12 1501   3.093   5.084   6.192 -0.3536  0.3444  0.3746
   29ccc    H37 1502   3.131   5.124   6.272  0.1606  0.2760  0.1630
   29ccc    O13 1503   3.302   5.272   6.232  0.7668  0.6308 -0.1560
   29ccc    H38 1504   3.474   5.451   6.411 -2.3151  1.8284 -0.6318
   29ccc    H39 1505   3.411   5.221   5.965  0.6609  0.9228 -1.6926
   29ccc     O5 1506   3.262   5.319   5.865  0.1634 -0.2479 -0.2048
   29ccc    H40 1507   3.327   5.352   5.801 -0.3904  0.3805 -0.4498
   29ccc     N4 1508   3.573   5.531   6.193  0.0942  0.2303  0.5654
   30SOL     OW 1509   0.951   7.960   2.599 -0.5798  0.3165 -0.1399
   30SOL    HW1 1510   0.962   8.039   2.653  1.3672  0.3407 -0.4932
   30SOL    HW2 1511   1.008   7.975   2.523 -2.6112 -0.0784 -1.8398
   31SOL     OW 1512   0.347   3.686   3.542 -0.5055  0.1108  0.0573
   31SOL    HW1 1513   0.436   3.685   3.577 -1.2487  2.8830  2.3478
   31SOL    HW2 1514   0.336   3.599   3.503  2.9068 -0.5845  0.3449
   32SOL     OW 1515   5.834   0.696   0.108  0.7738 -0.6832  0.1748
   32SOL    HW1 1516   5.839   0.709   0.203  0.5150 -0.0753  0.1118
   32SOL    HW2 1517   5.747   0.661   0.093  0.4548  0.1250  0.0747
   33SOL     OW 1518   2.614   6.963   0.440  0.2420  0.0976  0.1017
   33SOL    HW1 1519   2.601   7.053   0.468  0.7440 -0.3000  1.7115
   33SOL    HW2 1520   2.686   6.967   0.377  0.0908  0.8412 -0.0317
   34SOL     OW 1521   3.251   0.915   2.853 -0.3575  0.0647  0.2721
   34SOL    HW1 1522   3.194   0.847   2.888 -1.4308  0.0280 -1.4172
   34SOL    HW2 1523   3.319   0.868   2.806  2.3660  0.0284  3.9019
   35SOL     OW 1524   1.464   4.187   5.768  0.1484  0.7702 -0.4279
   35SOL    HW1 1525   1.405   4.207   5.696 -0.1296 -0.7323 -0.6497
   35SOL    HW2 1526   1.549   4.219   5.738  0.4538 -1.4870 -2.3367
   36SOL     OW 1527   5.977   6.930   0.560 -0.0552 -0.3460  0.3851
   36SOL    HW1 1528   5.889   6.956   0.586 -0.0345 -1.4048  1.5919
   36SOL    HW2 1529   6.030   7.008   0.572 -0.9340  0.5204 -1.0453
   37SOL     OW 1530   3.458   2.015   2.771  0.4615 -0.1485  0.5586
   37SOL    HW1 1531   3.472   1.932   2.726 -1.7931 -0.6904  0.7416
   37SOL    HW2 1532   3.486   2.082   2.708  0.3899 -0.9779 -0.3636
   38SOL     OW 1533   1.619   7.938   6.158 -0.7058 -0.0759  0.2826
   38SOL    HW1 1534   1.551   7.998   6.128  0.0674  0.7593  0.1505
   38SOL    HW2 1535   1.693   7.954   6.099 -0.6841 -1.6079 -0.1478
   39SOL     OW 1536   0.279   2.511   7.612 -0.1587 -0.2260 -0.5081
   39SOL    HW1 1537   0.340   2.584   7.616 -0.8787  0.3477  2.4708
   39SOL    HW2 1538   0.256   2.494   7.703 -2.9215 -1.7153 -1.3708
   40SOL     OW 1539   7.649   4.384   5.644  0.1168 -0.3493  0.0219
   40SOL    HW1 1540   7.574   4.429   5.682 -1.0389 -1.7320 -0.5464
   40SOL    HW2 1541   7.636   4.389   5.550 -0.1910 -2.0543 -0.0613
   41SOL     OW 1542   1.023   0.554   0.217  0.1496 -0.5546 -0.1079
   41SOL    HW1 1543   1.101   0.609   0.208 -0.4389  0.8004  2.2510
   41SOL    HW2 1544   0.995   0.566   0.307 -1.9390 -2.2123 -0.4436
   42SOL     OW 1545   1.896   7.143   6.071  0.3768 -0.0110 -0.4898
   42SOL    HW1 1546   1.887   7.110   5.981 -0.3295 -0.6777 -0.1878
   42SOL    HW2 1547   1.926   7.066   6.121 -1.9818 -0.4453  0.3681
   43SOL     OW 1548   2.776   2.232   7.451 -0.1096 -0.7449  0.1181
   43SOL    HW1 1549   2.853   2.256   7.399 -0.5467 -1.3476 -0.8295
   43SOL    HW2 1550   2.702   2.268   7.402 -0.3853  1.2887  1.8570
   44SOL     OW 1551   6.160   6.872   3.433 -0.3026 -0.0334  0.1844
   44SOL    HW1 1552   6.191   6.947   3.485  0.7233 -0.2388 -0.0940
   44SOL    HW2 1553   6.087   6.906   3.383  0.1774  0.8069  0.0306
   45SOL     OW 1554   1.279   0.698   5.901 -0.0145  0.1512 -0.3374
   45SOL    HW1 1555   1.335   0.647   5.960 -2.9169 -1.1494  1.4790
   45SOL    HW2 1556   1.244   0.768   5.955 -2.0683 -0.5594 -0.6525
   46SOL     OW 1557   7.623   0.495   0.250  0.1043  0.1257  0.2673
   46SOL    HW1 1558   7.590   0.530   0.167 -0.0075  0.6305  0.5243
   46SOL    HW2 1559   7.556   0.434   0.279 -0.1297  0.3906  0.2815
   47SOL     OW 1560   3.614   4.376   0.816  0.1666  0.1924 -0.0417
   47SOL    HW1 1561   3.674   4.403   0.886 -0.3294 -0.0837  0.5046
   47SOL    HW2 1562   3.665   4.317   0.762 -0.0687 -1.3788  1.3616
   48SOL     OW 1563   5.438   5.207   5.596 -0.2130  0.3610 -0.0246
   48SOL    HW1 1564   5.457   5.116   5.620 -1.9940  0.3726  1.6374
   48SOL    HW2 1565   5.435   5.206   5.500 -1.6073 -1.6612 -0.0130
   49SOL     OW 1566   1.784   2.935   5.132  0.5028 -0.9173  0.2276
   49SOL    HW1 1567   1.796   2.842   5.147  1.4903 -0.8408  0.0055
   49SOL    HW2 1568   1.845   2.956   5.061 -1.0894 -0.4682 -1.0528
   50SOL     OW 1569   3.502   2.912   6.502 -0.2560  0.1131  0.3938
   50SOL    HW1 1570   3.485   2.913   6.596  0.7417  1.3337  0.5905
   50SOL    HW2 1571   3.462   2.993   6.470 -2.1169 -1.1159 -0.5682
   51SOL     OW 1572   5.679   1.078   1.787  0.2506 -0.2231 -0.4510
   51SOL    HW1 1573   5.694   1.007   1.725 -0.4878 -1.1640  0.4154
   51SOL    HW2 1574   5.583   1.088   1.788  0.3286  0.5549 -0.3067
   52SOL     OW 1575   4.368   3.628   6.995 -0.1767 -0.0082  0.0673
   52SOL    HW1 1576   4.444   3.604   7.048 -0.5688 -0.1721  0.5603
   52SOL    HW2 1577   4.293   3.591   7.042 -0.6291  0.7264 -0.0562
   53SOL     OW 1578   5.640   2.488   3.921  0.5832  0.3603  0.0912
   53SOL    HW1 1579   5.579   2.523   3.986 -0.8052 -0.2147 -0.8451
   53SOL    HW2 1580   5.706   2.556   3.911  0.2683  0.8760  1.3701
   54SOL     OW 1581   5.345   4.058   3.605 -0.0260 -0.2640  0.3843
   54SOL    HW1 1582   5.303   4.111   3.673  0.5887  0.9309 -0.1295
   54SOL    HW2 1583   5.439   4.071   3.620  0.1989  2.2941 -2.2878
   55SOL     OW 1584   7.314   2.902   0.989  0.0186 -0.4183 -0.0282
   55SOL    HW1 1585   7.248   2.920   0.922 -0.6624 -1.3646  0.3788
   55SOL    HW2 1586   7.307   2.808   1.005  2.0737 -0.7212 -0.6194
   56SOL     OW 1587   2.509   4.211   1.055  0.2837  0.3363  0.0683
   56SOL    HW1 1588   2.440   4.276   1.043  0.2790  0.2718 -0.2495
   56SOL    HW2 1589   2.463   4.129   1.073  0.1845 -0.2313 -2.4775
   57SOL     OW 1590   5.825   2.813   2.423  0.3179 -0.3603  0.5439
   57SOL    HW1 1591   5.915   2.823   2.455  0.4514 -0.1483  0.1079
   57SOL    HW2 1592   5.789   2.902   2.424  0.4811 -0.2803 -0.3523
   58SOL     OW 1593   3.729   4.766   4.020 -0.3350  0.1244  0.0948
   58SOL    HW1 1594   3.790   4.837   3.997 -0.0950  0.1752  0.8425
   58SOL    HW2 1595   3.653   4.780   3.964  1.4398 -1.6483 -3.0282
   59SOL     OW 1596   5.376   3.267   0.030 -0.0626  0.1782 -0.4209
   59SOL    HW1 1597   5.436   3.328   0.074 -0.1942 -0.4710  0.7082
   59SOL    HW2 1598   5.433   3.202  -0.010  0.0251 -0.6113  0.9099
   60SOL     OW 1599   3.394   2.487   0.691  0.3182  0.0056 -0.8111
   60SOL    HW1 1600   3.413   2.459   0.781 -1.5915  0.9249 -0.0732
   60SOL    HW2 1601   3.323   2.429   0.663 -0.9574  1.4177 -0.6864
   61SOL     OW 1602   4.906   5.984   0.176  0.6788  0.6387 -0.2276
   61SOL    HW1 1603   4.960   5.956   0.102  0.3172  2.4490 -1.2108
   61SOL    HW2 1604   4.841   6.042   0.138 -0.4726  0.4110  1.3051
   62SOL     OW 1605   1.048   1.171   4.857  0.2868  0.0932  0.1537
   62SOL    HW1 1606   1.046   1.208   4.769  0.8366 -0.9619 -0.3073
   62SOL    HW2 1607   1.118   1.218   4.902  1.6700 -1.0395 -0.7423
   63SOL     OW 1608   5.517   6.625   6.599 -1.1433 -0.3738  0.3759
   63SOL    HW1 1609   5.485   6.576   6.523  1.4658  0.1211 -1.1627
   63SOL    HW2 1610   5.587   6.571   6.634  0.9568  1.5620 -0.6108
   64SOL     OW 1611   6.489   4.346   5.402  1.0557 -0.6683 -0.1217
   64SOL    HW1 1612   6.499   4.263   5.357  2.6990 -0.3181 -0.4714
   64SOL    HW2 1613   6.527   4.411   5.343 -0.7514  0.4548 -0.1378
   65SOL     OW 1614   7.570   0.140   5.961  0.2477 -0.2016 -0.4128
   65SOL    HW1 1615   7.581   0.066   5.901  1.8487  0.3791 -0.8714
   65SOL    HW2 1616   7.498   0.113   6.018 -0.0847 -1.5485 -1.4148
   66SOL     OW 1617   6.665   5.610   3.474 -0.3425  0.1728 -0.4178
   66SOL    HW1 1618   6.669   5.607   3.569  1.2278  0.3483 -0.4428
   66SOL    HW2 1619   6.701   5.696   3.451  0.2595 -0.2713 -1.1900
   67SOL     OW 1620   2.339   1.817   0.559  0.0354  0.1268  0.4123
   67SOL    HW1 1621   2.247   1.844   0.558  0.1759  0.6253 -0.0207
   67SOL    HW2 1622   2.376   1.859   0.637 -0.4534 -1.3507  1.4757
   68SOL     OW 1623   6.529   0.551   7.457 -0.1253  0.5678 -0.5527
   68SOL    HW1 1624   6.552   0.458   7.453 -1.5910  0.2153 -1.6223
   68SOL    HW2 1625   6.575   0.590   7.383 -1.6638  0.1334 -1.8018
   69SOL     OW 1626   0.839   4.493   2.622 -0.0896  0.2735  0.1683
   69SOL    HW1 1627   0.826   4.527   2.710  1.1830 -2.1988  1.4159
   69SOL    HW2 1628   0.902   4.552   2.582 -0.0232  0.9365  1.2311
   70SOL     OW 1629   4.827   6.539   6.721 -0.0302  0.0387  0.0976
   70SOL    HW1 1630   4.814   6.450   6.689  2.3273 -0.7018  1.0050
   70SOL    HW2 1631   4.921   6.554   6.713 -0.0563  1.6312  1.9781
   71SOL     OW 1632   6.035   6.666   4.993 -0.1276  0.1778 -0.5926
   71SOL    HW1 1633   5.965   6.656   4.929 -1.4966 -1.7016  1.0730
   71SOL    HW2 1634   5.990   6.682   5.076  1.3562 -1.3532  0.5877
   72SOL     OW 1635   5.019   6.575   2.265 -0.2303 -0.3696 -0.0678
   72SOL    HW1 1636   5.059   6.489   2.276 -0.2145 -0.0952  2.4492
   72SOL    HW2 1637   4.926   6.561   2.280 -0.1873  0.1002  0.6440
   73SOL     OW 1638   3.586   0.328   3.008  0.3065  0.5340  0.7151
   73SOL    HW1 1639   3.559   0.283   3.088 -1.7080 -0.6111 -0.5244
   73SOL    HW2 1640   3.513   0.388   2.989  1.6413  2.2587  0.7483
   74SOL     OW 1641   1.889   6.572   0.079 -0.3812 -0.0931  0.4140
   74SOL    HW1 1642   1.897   6.483   0.115 -2.5099 -0.4490  0.1205
   74SOL    HW2 1643   1.969   6.584   0.028  1.0039 -0.9650  2.2429
   75SOL     OW 1644   6.120   4.468   6.808  0.2485 -0.0158  0.4044
   75SOL    HW1 1645   6.077   4.526   6.870 -1.0383  0.8877 -1.2347
   75SOL    HW2 1646   6.067   4.389   6.807 -0.1161  0.2285  0.0016
   76SOL     OW 1647   3.121   1.916   5.051 -0.5976 -0.0825 -0.1415
   76SOL    HW1 1648   3.210   1.888   5.072 -1.1021 -1.9131 -0.2537
   76SOL    HW2 1649   3.101   1.985   5.114  1.0655  0.7088 -0.4410
   77SOL     OW 1650   2.950   0.649   1.446  0.8437 -0.2994  0.4769
   77SOL    HW1 1651   2.983   0.559   1.454 -1.8134 -1.2865  1.5427
   77SOL    HW2 1652   2.983   0.693   1.524 -0.3972 -1.3106  1.6247
   78SOL     OW 1653   6.825   6.216   3.734  0.4497 -0.1555  0.1578
   78SOL    HW1 1654   6.851   6.263   3.654  1.5723  0.3596  0.7969
   78SOL    HW2 1655   6.785   6.283   3.789  0.2863 -0.3650  0.2950
   79SOL     OW 1656   3.219   4.768   4.664  0.0273  0.1237  0.1349
   79SOL    HW1 1657   3.232   4.729   4.750 -0.4968 -0.2211  0.0678
   79SOL    HW2 1658   3.306   4.773   4.625  0.1524 -0.5719  0.3249
   80SOL     OW 1659   2.031   0.101   4.002  0.2002  0.1001  0.1267
   80SOL    HW1 1660   2.120   0.066   3.995  0.3147  0.6505 -2.0139
   80SOL    HW2 1661   2.042   0.185   4.045  1.0924  1.2099 -2.1113
   81SOL     OW 1662   0.720   5.895   2.142  0.3376 -0.3369 -0.2566
   81SOL    HW1 1663   0.643   5.885   2.085  0.4915 -0.7143 -0.4016
   81SOL    HW2 1664   0.731   5.809   2.182  0.6127 -0.2479 -0.1433
   82SOL     OW 1665   4.534   3.131   2.038  0.0754  0.3133 -0.1151
   82SOL    HW1 1666   4.503   3.175   2.117  0.8187 -0.3901  0.5898
   82SOL    HW2 1667   4.459   3.133   1.978 -0.1689  1.7812  0.2001
   83SOL     OW 1668   2.666   3.251   4.992 -0.0980 -0.4292 -0.4221
   83SOL    HW1 1669   2.648   3.335   5.036  0.0589 -0.2438 -0.7078
   83SOL    HW2 1670   2.614   3.254   4.912 -1.2847 -1.2596  0.2858
   84SOL     OW 1671   4.988   6.562   1.076 -0.7366 -0.1126 -0.0131
   84SOL    HW1 1672   4.975   6.475   1.114  2.0080 -0.4623  0.3428
   84SOL    HW2 1673   4.943   6.559   0.992 -1.3917 -1.5725  0.3575
   85SOL     OW 1674   5.857   0.694   6.027 -0.3086  0.4109 -0.1086
   85SOL    HW1 1675   5.789   0.755   6.000  0.4216  0.2405 -2.5450
   85SOL    HW2 1676   5.826   0.659   6.110 -1.4625  2.9500  0.6302
   86SOL     OW 1677   6.002   7.470   0.605 -0.3101 -0.2802  0.4159
   86SOL    HW1 1678   6.058   7.400   0.572 -0.6899 -1.0705  1.3954
   86SOL    HW2 1679   6.063   7.542   0.622  0.2137 -0.6530  0.1745
   87SOL     OW 1680   6.050   4.302   0.733  0.0661  0.3866  0.1536
   87SOL    HW1 1681   6.012   4.301   0.821  1.5916  0.6579  0.8365
   87SOL    HW2 1682   6.139   4.333   0.745  0.0117  1.3787 -1.6202
   88SOL     OW 1683   6.181   3.800   5.165 -0.0342  1.1246  0.0298
   88SOL    HW1 1684   6.113   3.811   5.099  0.4429  0.6349 -0.5594
   88SOL    HW2 1685   6.134   3.774   5.244 -0.5917  1.5123 -0.1718
   89SOL     OW 1686   2.912   7.418   1.588  0.2498 -0.2102 -0.4919
   89SOL    HW1 1687   2.820   7.443   1.577  0.4550  1.5088  1.1807
   89SOL    HW2 1688   2.936   7.452   1.674  2.2241 -1.4034 -0.5011
   90SOL     OW 1689   6.835   5.346   0.775  0.4005 -0.4422 -0.3875
   90SOL    HW1 1690   6.893   5.273   0.757  0.1194 -1.3440  1.9899
   90SOL    HW2 1691   6.749   5.318   0.743  0.5356 -0.6456 -0.5670
   91SOL     OW 1692   0.377   4.855   2.603  0.1567 -0.0499 -0.5692
   91SOL    HW1 1693   0.305   4.890   2.551  0.2712  0.7613 -0.2012
   91SOL    HW2 1694   0.351   4.872   2.694 -0.4391 -2.1962 -0.2794
   92SOL     OW 1695   0.868   5.786   3.537  0.0920  0.4731  0.5793
   92SOL    HW1 1696   0.913   5.754   3.615  0.4874  0.4324  0.3413
   92SOL    HW2 1697   0.784   5.819   3.568 -0.4151 -0.9585  0.8122
   93SOL     OW 1698   0.381   6.963   3.905 -0.0651 -0.5912 -0.3551
   93SOL    HW1 1699   0.373   6.875   3.942  0.3818 -1.3086 -1.8887
   93SOL    HW2 1700   0.461   6.961   3.854 -0.1749  0.6463 -0.6222
   94SOL     OW 1701   1.366   1.504   6.150  0.0448 -0.3798 -0.1439
   94SOL    HW1 1702   1.362   1.457   6.067 -2.3328  0.7998 -0.8023
   94SOL    HW2 1703   1.367   1.435   6.217 -0.4922 -1.3494 -1.1027
   95SOL     OW 1704   5.696   4.584   2.027  0.0224  0.6871 -0.0689
   95SOL    HW1 1705   5.739   4.664   2.057  1.0636 -0.0339  0.3855
   95SOL    HW2 1706   5.708   4.522   2.098 -3.7772  1.0896  1.1284
   96SOL     OW 1707   3.077   4.740   1.912  0.3587 -0.0342  0.0093
   96SOL    HW1 1708   3.086   4.829   1.878  0.1464  0.5352  1.3612
   96SOL    HW2 1709   2.991   4.711   1.881 -0.0796  0.6852  0.5192
   97SOL     OW 1710   2.628   7.830   7.845 -0.1857 -0.2661  0.2942
   97SOL    HW1 1711   2.622   7.910   7.794 -0.9025  0.2882  1.2197
   97SOL    HW2 1712   2.692   7.776   7.799 -0.3396  0.4843 -0.8115
   98SOL     OW 1713   2.511   2.911   5.262 -0.0575  0.1458 -0.0101
   98SOL    HW1 1714   2.474   2.917   5.174 -0.3525  0.3215  0.1232
   98SOL    HW2 1715   2.517   3.002   5.291 -3.5679  0.0369  1.6337
   99SOL     OW 1716   0.254   0.470   5.836 -0.3197 -0.0857  0.0160
   99SOL    HW1 1717   0.346   0.487   5.818 -0.8319  0.7979 -2.0904
   99SOL    HW2 1718   0.235   0.520   5.916  0.7900  0.5794 -0.1177
  100SOL     OW 1719   5.605   0.483   6.332 -0.2811  0.1372 -0.3747
  100SOL    HW1 1720   5.540   0.481   6.262  1.6561  1.3616 -2.3452
  100SOL    HW2 1721   5.559   0.524   6.405 -1.6177  1.3857 -1.8259
  101SOL     OW 1722   6.202   4.817   1.413 -0.0617  0.3820 -0.6545
  101SOL    HW1 1723   6.206   4.867   1.495  0.6104 -0.4103 -0.1935
  101SOL    HW2 1724   6.143   4.744   1.432 -1.9827  1.5654 -1.6753
  102SOL     OW 1725   2.937   6.865   4.325  0.3692 -0.3411  0.0687
  102SOL    HW1 1726   2.861   6.855   4.383  1.8788  0.8458  2.4113
  102SOL    HW2 1727   2.910   6.933   4.262 -1.3107 -1.6638 -0.7126
  103SOL     OW 1728   3.329   6.251   1.202  0.5016 -0.6821 -0.4766
  103SOL    HW1 1729   3.269   6.295   1.142  0.5704  0.5867  0.3442
  103SOL    HW2 1730   3.405   6.310   1.207  0.6302 -0.9156  0.6038
  104SOL     OW 1731   1.458   5.613   2.605  0.7003  0.3481 -0.5258
  104SOL    HW1 1732   1.475   5.703   2.577 -0.5226  0.9737  0.6234
  104SOL    HW2 1733   1.520   5.597   2.676  0.1716  0.6958  0.0213
  105SOL     OW 1734   5.135   8.025   6.057  0.4889  0.3187  0.3474
  105SOL    HW1 1735   5.062   8.054   6.002  0.0560  0.0019  0.7391
  105SOL    HW2 1736   5.119   7.931   6.069  1.4511  0.0652 -0.2861
  106SOL     OW 1737   4.402   7.041   6.969 -0.3804  0.7813 -0.2373
  106SOL    HW1 1738   4.307   7.048   6.981 -0.1618  1.3479  1.4037
  106SOL    HW2 1739   4.419   6.947   6.967 -0.8431  0.6658  0.7783
  107SOL     OW 1740   5.946   8.051   3.616  0.5757  0.2344  0.3900
  107SOL    HW1 1741   5.976   8.070   3.527 -0.0130 -2.1824 -0.3969
  107SOL    HW2 1742   6.000   8.107   3.672  1.9713  0.7564 -1.3835
  108SOL     OW 1743   3.350   7.312   5.618  0.3460  0.1856  0.2794
  108SOL    HW1 1744   3.395   7.228   5.604 -0.8528 -0.7356  1.7190
  108SOL    HW2 1745   3.265   7.300   5.577  0.0204  0.5490  0.8457
  109SOL     OW 1746   5.561   2.906   2.574 -0.0521 -0.2409  0.4674
  109SOL    HW1 1747   5.596   2.987   2.536 -1.6155  0.0964 -0.3460
  109SOL    HW2 1748   5.634   2.868   2.623  0.7255  1.6386  0.8306
  110SOL     OW 1749   7.381   5.661   4.827  0.2101 -0.0519 -0.5734
  110SOL    HW1 1750   7.436   5.588   4.856  0.4574  0.0035 -0.8928
  110SOL    HW2 1751   7.416   5.737   4.874  0.1945 -0.0773 -0.5216
  111SOL     OW 1752   2.447   2.682   6.674 -0.0580  0.3457 -0.1145
  111SOL    HW1 1753   2.370   2.708   6.724 -0.5229 -2.4959  0.8084
  111SOL    HW2 1754   2.452   2.745   6.602 -2.6788  1.1516  0.3261
  112SOL     OW 1755   1.717   4.490   4.000  0.7100 -0.1791 -0.0380
  112SOL    HW1 1756   1.713   4.408   3.951  0.5307  0.5782 -1.3409
  112SOL    HW2 1757   1.626   4.520   4.003  0.7408 -0.1520  0.6459
  113SOL     OW 1758   0.046   7.741   0.458 -0.2739  0.3065 -0.1267
  113SOL    HW1 1759   0.097   7.755   0.378 -0.9864 -1.5652 -0.9721
  113SOL    HW2 1760   0.002   7.657   0.444 -2.4680  1.1520  1.1549
  114SOL     OW 1761   7.136   1.641   6.674 -0.3089 -0.0229  0.3843
  114SOL    HW1 1762   7.059   1.600   6.634 -2.4405  3.1283  0.9187
  114SOL    HW2 1763   7.165   1.577   6.739 -0.2924 -2.7631 -2.0943
  115SOL     OW 1764   0.737   4.956   3.517 -0.2711 -0.2802 -0.1616
  115SOL    HW1 1765   0.648   4.961   3.482 -0.7612 -1.1110  0.8698
  115SOL    HW2 1766   0.734   5.009   3.597  0.2319 -0.0980 -0.2626
  116SOL     OW 1767   3.525   6.329   6.731 -0.5603 -0.0226 -0.1354
  116SOL    HW1 1768   3.561   6.321   6.643  0.7009 -0.4467  0.3932
  116SOL    HW2 1769   3.493   6.241   6.752 -2.4700  0.4602 -0.7956
  117SOL     OW 1770   0.751   4.700   2.401  0.5463 -0.3411 -0.0499
  117SOL    HW1 1771   0.664   4.684   2.437  0.4445 -0.4847 -0.3558
  117SOL    HW2 1772   0.783   4.613   2.375  0.2458 -0.1417 -1.1428
  118SOL     OW 1773   4.054   6.473   2.143 -0.7152 -0.1046  0.1076
  118SOL    HW1 1774   4.125   6.432   2.094  0.6421  2.0274  0.1201
  118SOL    HW2 1775   4.099   6.522   2.212 -2.3193  0.2322  0.9690
  119SOL     OW 1776   7.498   1.984   2.116  0.1769  0.1852 -0.0436
  119SOL    HW1 1777   7.485   1.890   2.125  0.0234  0.1133 -0.8910
  119SOL    HW2 1778   7.437   2.010   2.048  0.1083  0.9304  0.2917
  120SOL     OW 1779   8.026   2.416   1.442  0.2748 -0.1408 -0.3424
  120SOL    HW1 1780   8.046   2.500   1.485  0.3525 -0.1632 -0.3341
  120SOL    HW2 1781   8.098   2.403   1.380  1.0812 -0.9216  0.7146
  121SOL     OW 1782   6.642   2.284   4.845 -0.2785 -0.1123 -0.4116
  121SOL    HW1 1783   6.600   2.330   4.918  0.7527  0.9990 -0.4764
  121SOL    HW2 1784   6.606   2.326   4.767 -3.1155 -2.7934 -0.7456
  122SOL     OW 1785   0.085   0.859   0.867  0.2901  0.5410  0.0138
  122SOL    HW1 1786   0.028   0.829   0.796 -0.5030 -0.1900  0.9228
  122SOL    HW2 1787   0.144   0.785   0.883 -0.0878  0.3699  0.6626
  123SOL     OW 1788   3.539   0.579   0.418  0.1660  0.2183  0.3111
  123SOL    HW1 1789   3.615   0.522   0.428  0.8017  1.0702  0.4132
  123SOL    HW2 1790   3.573   0.658   0.377 -0.4610  1.0541  1.3644
  124SOL     OW 1791   5.447   6.744   4.742  0.3862  0.3962  0.2325
  124SOL    HW1 1792   5.410   6.824   4.778 -0.9227 -0.1657  0.2143
  124SOL    HW2 1793   5.541   6.754   4.751  0.2210  1.7298  0.6519
  125SOL     OW 1794   6.784   0.343   5.991 -0.6938 -0.1268  0.4672
  125SOL    HW1 1795   6.729   0.394   6.051 -1.0624  0.5321 -0.4029
  125SOL    HW2 1796   6.735   0.342   5.909  0.8826  1.0700 -0.5553
  126SOL     OW 1797   0.023   0.644   7.754 -0.3457  0.1721 -1.0727
  126SOL    HW1 1798   0.105   0.677   7.790 -0.2153  0.2078 -1.3992
  126SOL    HW2 1799   0.023   0.675   7.663  0.7742 -2.4802 -2.0600
  127SOL     OW 1800   5.101   3.674   3.691  0.0120 -0.3105 -0.3263
  127SOL    HW1 1801   5.121   3.586   3.659  2.1282  0.6779 -2.0322
  127SOL    HW2 1802   5.170   3.692   3.755 -0.9066 -0.1753  0.6453
  128SOL     OW 1803   1.256   3.404   0.040 -0.2854  0.1223 -0.0441
  128SOL    HW1 1804   1.255   3.415   0.136 -0.7138 -2.0170  0.2455
  128SOL    HW2 1805   1.301   3.321   0.026  0.4220  0.7525 -1.7823
  129SOL     OW 1806   5.581   6.517   7.628  0.0264 -0.1468 -0.7142
  129SOL    HW1 1807   5.569   6.609   7.603  0.9687  0.3200  0.4591
  129SOL    HW2 1808   5.512   6.500   7.692 -0.4872 -0.4352 -1.3319
  130SOL     OW 1809   1.217   3.492   4.577  0.4471  0.7270 -0.1229
  130SOL    HW1 1810   1.243   3.408   4.615  0.8388  1.7266  2.0249
  130SOL    HW2 1811   1.155   3.470   4.507 -0.1955 -1.2975  1.0072
  131SOL     OW 1812   4.979   3.611   5.668  0.1412  0.3906  0.0104
  131SOL    HW1 1813   5.002   3.612   5.575  1.5123  2.7497  0.3075
  131SOL    HW2 1814   5.058   3.638   5.713 -1.1851  1.6993  1.6726
  132SOL     OW 1815   3.852   2.708   7.681  0.0216  0.4054  0.3200
  132SOL    HW1 1816   3.913   2.665   7.620  0.5991  0.9961  0.4645
  132SOL    HW2 1817   3.766   2.696   7.641  0.2673 -0.1907 -0.0422
  133SOL     OW 1818   5.704   5.042   1.779 -0.4147  0.0892  0.1783
  133SOL    HW1 1819   5.630   4.991   1.745 -0.3654 -0.2041  0.4967
  133SOL    HW2 1820   5.726   5.102   1.708  0.3009 -1.1605 -0.6970
  134SOL     OW 1821   6.031   7.009   3.218  0.2096  0.2247  0.1189
  134SOL    HW1 1822   6.102   7.073   3.223  1.4185 -1.0105 -0.4970
  134SOL    HW2 1823   6.049   6.959   3.139 -0.8138 -0.7503  0.4688
  135SOL     OW 1824   2.688   7.683   6.317 -0.2239  0.3676  0.0015
  135SOL    HW1 1825   2.694   7.589   6.334  0.0923  0.3694 -0.0863
  135SOL    HW2 1826   2.776   7.707   6.287 -0.6890  0.4323 -1.3353
  136SOL     OW 1827   5.833   2.419   4.379 -0.5041  0.4096  0.0959
  136SOL    HW1 1828   5.741   2.433   4.355 -1.3159  0.5536  2.9167
  136SOL    HW2 1829   5.864   2.506   4.403  0.7186  0.5260 -1.7723
  137SOL     OW 1830   0.085   6.439   5.591  0.4494 -0.3372 -0.1633
  137SOL    HW1 1831   0.180   6.431   5.580  0.4750 -1.0599  0.5053
  137SOL    HW2 1832   0.049   6.376   5.529  0.4393 -0.6982  0.2047
  138SOL     OW 1833   4.851   6.266   2.248 -0.4162 -0.4625 -0.6624
  138SOL    HW1 1834   4.867   6.250   2.341 -1.2275 -1.7822 -0.7223
  138SOL    HW2 1835   4.938   6.277   2.211 -0.0922  0.3346  0.2856
  139SOL     OW 1836   6.909   3.419   0.415  0.0054  0.8244 -0.6699
  139SOL    HW1 1837   6.927   3.428   0.322  1.9628 -1.0553 -0.5602
  139SOL    HW2 1838   6.934   3.503   0.454  0.3824  1.1865 -1.6748
  140SOL     OW 1839   0.487   0.292   7.985 -0.3896 -0.4983 -0.0819
  140SOL    HW1 1840   0.529   0.225   8.038  0.3550  0.0063 -0.0222
  140SOL    HW2 1841   0.453   0.245   7.909 -1.5489 -1.2348  0.8704
  141SOL     OW 1842   5.365   0.876   4.333 -0.8724  0.0897  0.3204
  141SOL    HW1 1843   5.458   0.891   4.351 -0.9821  0.0953  0.8948
  141SOL    HW2 1844   5.363   0.845   4.242 -0.3770  0.7736  0.0679
  142SOL     OW 1845   6.416   3.501   3.933 -0.1479 -0.2143  0.4132
  142SOL    HW1 1846   6.463   3.473   4.011 -0.4658 -0.1161  0.6404
  142SOL    HW2 1847   6.324   3.483   3.952 -0.1130 -1.4911 -0.4767
  143SOL     OW 1848   2.937   1.525   1.391  0.1499  0.1680  0.3621
  143SOL    HW1 1849   2.921   1.589   1.460  1.8650  1.4575 -0.3531
  143SOL    HW2 1850   2.948   1.578   1.312  2.0747 -0.9383 -0.1695
  144SOL     OW 1851   5.996   0.112   7.443  0.3002 -0.7670  0.3219
  144SOL    HW1 1852   5.936   0.156   7.502  0.2850 -1.4339  0.8175
  144SOL    HW2 1853   5.979   0.019   7.457  2.1972 -1.0246  1.3082
  145SOL     OW 1854   3.532   7.649   0.426 -0.0318 -0.6089  0.0001
  145SOL    HW1 1855   3.514   7.571   0.373 -0.4391  0.1966 -1.0689
  145SOL    HW2 1856   3.627   7.647   0.440  0.1770 -0.4649 -1.3441
  146SOL     OW 1857   6.961   3.708   2.744 -0.4981 -0.3955 -0.0433
  146SOL    HW1 1858   6.955   3.625   2.792  0.4234  0.4207  1.5981
  146SOL    HW2 1859   6.886   3.759   2.775 -0.6267 -0.3368 -0.4533
  147SOL     OW 1860   2.431   1.692   6.107 -0.4194  0.7275 -0.1973
  147SOL    HW1 1861   2.442   1.719   6.015 -3.7640 -0.4476 -1.0894
  147SOL    HW2 1862   2.459   1.601   6.109 -1.0549  0.5300 -0.2403
  148SOL     OW 1863   4.671   6.254   7.266  0.0975 -0.3837 -0.6440
  148SOL    HW1 1864   4.711   6.267   7.180  2.3380  0.9858  0.5088
  148SOL    HW2 1865   4.655   6.342   7.299 -1.8375 -0.8953 -0.0942
  149SOL     OW 1866   7.007   7.466   4.086 -0.1542  0.4394  0.4160
  149SOL    HW1 1867   6.933   7.408   4.066 -0.4401  1.2410 -0.9163
  149SOL    HW2 1868   6.967   7.543   4.127  0.0413  0.5290  0.4402
  150SOL     OW 1869   6.418   7.788   4.576  0.5932 -0.0188 -0.3884
  150SOL    HW1 1870   6.425   7.745   4.661 -1.7325 -1.1676 -0.7121
  150SOL    HW2 1871   6.505   7.824   4.560  1.0769  0.3162  2.5028
  151SOL     OW 1872   2.536   7.577   5.975 -0.1226  0.5820  0.2451
  151SOL    HW1 1873   2.619   7.560   5.931 -0.6658  1.6112 -1.2915
  151SOL    HW2 1874   2.544   7.667   6.009 -0.8730  1.0068 -0.6503
  152SOL     OW 1875   0.579   4.721   7.513 -0.2799  0.1578  0.3344
  152SOL    HW1 1876   0.561   4.659   7.584 -2.4593  1.5827  1.1200
  152SOL    HW2 1877   0.627   4.792   7.556 -0.6892  0.5432  0.1498
  153SOL     OW 1878   4.172   7.986   6.241  0.4686  0.0558 -0.1866
  153SOL    HW1 1879   4.247   8.010   6.296  0.4883  1.0563 -0.6190
  153SOL    HW2 1880   4.096   7.994   6.299  0.5585  0.4395 -0.1198
  154SOL     OW 1881   3.087   5.624   0.121 -0.0956  0.1252 -0.2762
  154SOL    HW1 1882   3.010   5.672   0.091  0.4551 -0.3828 -2.6702
  154SOL    HW2 1883   3.067   5.601   0.212 -1.7645  1.9717 -0.1019
  155SOL     OW 1884   5.563   3.522   3.465 -0.4820  0.4607  0.1202
  155SOL    HW1 1885   5.587   3.530   3.557  0.6694 -1.3241  0.0352
  155SOL    HW2 1886   5.584   3.607   3.426 -1.3828  1.3805  1.5566
  156SOL     OW 1887   7.277   4.599   5.493 -0.2158 -0.1754 -0.1756
  156SOL    HW1 1888   7.214   4.671   5.487 -0.5942 -0.6447 -2.7101
  156SOL    HW2 1889   7.231   4.532   5.543  0.5518  1.5838  3.2904
  157SOL     OW 1890   6.321   2.854   4.554  0.4562 -0.1189  0.2343
  157SOL    HW1 1891   6.402   2.879   4.509  0.7677 -0.2043  0.7365
  157SOL    HW2 1892   6.287   2.936   4.588 -0.4472  0.1350 -1.2114
  158SOL     OW 1893   2.968   7.018   2.497  0.2827  0.0457  0.0138
  158SOL    HW1 1894   2.993   7.103   2.532 -0.3698  0.4470 -0.4590
  158SOL    HW2 1895   2.883   7.033   2.455  0.6215 -0.6067 -0.9553
  159SOL     OW 1896   5.583   2.484   4.318 -0.3139 -0.1918  0.0852
  159SOL    HW1 1897   5.543   2.415   4.371 -0.5519  0.8391  1.2888
  159SOL    HW2 1898   5.514   2.549   4.307 -0.2156 -0.3033 -1.3846
  160SOL     OW 1899   5.759   3.423   7.730 -0.0781 -0.1420  0.2653
  160SOL    HW1 1900   5.734   3.470   7.809  0.9251  0.7484  0.0726
  160SOL    HW2 1901   5.815   3.484   7.682 -1.4641 -0.2844 -1.6236
  161SOL     OW 1902   2.320   7.274   3.473 -0.0965  0.1110 -0.4366
  161SOL    HW1 1903   2.258   7.345   3.462 -0.8917 -0.1752  1.7133
  161SOL    HW2 1904   2.344   7.248   3.384 -0.1910  2.6670 -1.2706
  162SOL     OW 1905   0.416   5.975   4.458 -0.0158 -0.0317 -0.2707
  162SOL    HW1 1906   0.356   5.912   4.418  0.6909 -0.4595 -0.6703
  162SOL    HW2 1907   0.415   5.952   4.551  1.0024 -1.3079 -0.5466
  163SOL     OW 1908   2.590   8.050   6.293  0.6214  0.2298  0.3999
  163SOL    HW1 1909   2.528   8.117   6.322  1.1476  0.4896  0.9411
  163SOL    HW2 1910   2.661   8.100   6.253 -0.0656 -0.1127 -1.3412
  164SOL     OW 1911   1.465   2.266   2.620  0.2283 -0.2004  0.0193
  164SOL    HW1 1912   1.370   2.282   2.615  0.1605  0.7372  2.7046
  164SOL    HW2 1913   1.473   2.171   2.611 -0.5802 -0.0861 -3.4103
  165SOL     OW 1914   4.376   4.835   2.635  0.7654  0.2963  0.1756
  165SOL    HW1 1915   4.397   4.772   2.704  1.1269  0.7729  0.5008
  165SOL    HW2 1916   4.302   4.885   2.669 -0.6277 -1.0227 -0.7498
  166SOL     OW 1917   4.086   0.908   7.082  0.1704  0.0785 -0.0980
  166SOL    HW1 1918   4.047   0.880   7.165 -1.0085 -1.0453 -0.9872
  166SOL    HW2 1919   4.097   0.826   7.032  2.0899  0.5666 -0.5649
  167SOL     OW 1920   6.840   1.090   2.425 -0.2591 -0.0492  0.0016
  167SOL    HW1 1921   6.787   1.161   2.459 -0.3961  0.4632 -1.2307
  167SOL    HW2 1922   6.777   1.020   2.407 -0.2806 -0.0645  0.1335
  168SOL     OW 1923   4.418   1.878   5.031  0.3217 -1.1654 -0.4713
  168SOL    HW1 1924   4.355   1.937   4.989  0.7741 -0.2649  0.1016
  168SOL    HW2 1925   4.376   1.851   5.112  0.8049 -0.2749  0.0892
  169SOL     OW 1926   4.772   4.834   0.277 -0.1060  0.4144  0.8091
  169SOL    HW1 1927   4.785   4.913   0.330  1.1839  2.5066 -2.3704
  169SOL    HW2 1928   4.860   4.806   0.253 -0.6278 -0.9427  0.3367
  170SOL     OW 1929   5.849   7.916   1.754 -0.4401  0.2960 -0.2976
  170SOL    HW1 1930   5.782   7.877   1.812 -0.9705  0.0819 -1.0384
  170SOL    HW2 1931   5.805   7.924   1.669 -0.1433  1.9405 -0.3296
  171SOL     OW 1932   4.829   2.607   7.879  0.4903  0.3106 -0.5235
  171SOL    HW1 1933   4.739   2.625   7.851  1.0408  1.5857 -1.5339
  171SOL    HW2 1934   4.869   2.693   7.888  1.0448 -0.1205  1.9564
  172SOL     OW 1935   4.921   3.484   0.976 -0.5512 -0.1325  0.1222
  172SOL    HW1 1936   4.990   3.419   0.991 -0.5330  0.3224  2.2118
  172SOL    HW2 1937   4.931   3.546   1.048 -2.0817  0.8835 -0.5090
  173SOL     OW 1938   4.604   7.962   6.031 -0.6690 -0.0184  0.2064
  173SOL    HW1 1939   4.611   7.869   6.049  0.3841  0.0895  0.3878
  173SOL    HW2 1940   4.524   7.970   5.979  0.2921 -1.2922 -1.5683
  174SOL     OW 1941   4.036   2.382   1.839  0.8452  0.4291 -0.2304
  174SOL    HW1 1942   3.972   2.447   1.809 -1.5895 -1.5954  0.2521
  174SOL    HW2 1943   4.109   2.391   1.777 -0.2786  2.2306 -1.3980
  175SOL     OW 1944   6.435   7.894   2.181 -0.1827  0.8877 -0.1674
  175SOL    HW1 1945   6.406   7.938   2.101  1.1494  1.1060 -0.5549
  175SOL    HW2 1946   6.436   7.962   2.248 -0.9040  0.7931 -0.0484
  176SOL     OW 1947   3.687   5.801   4.129  0.2750  0.1819  0.7986
  176SOL    HW1 1948   3.712   5.710   4.115  0.3620  0.0529  1.7216
  176SOL    HW2 1949   3.770   5.847   4.139  0.2233  0.3119  0.6296
  177SOL     OW 1950   7.688   6.786   5.133  0.3453  0.0028 -0.1843
  177SOL    HW1 1951   7.692   6.876   5.101  1.3115  0.3700  0.9433
  177SOL    HW2 1952   7.642   6.792   5.216  0.2780 -0.5779 -0.1745
  178SOL     OW 1953   4.863   0.427   5.452 -0.3147  0.1794  0.2719
  178SOL    HW1 1954   4.804   0.481   5.505 -0.6444  1.2978 -1.1716
  178SOL    HW2 1955   4.807   0.356   5.420  0.1492 -1.1504  2.2739
  179SOL     OW 1956   5.549   6.278   4.905  0.1693  0.2564  0.4812
  179SOL    HW1 1957   5.508   6.205   4.951  0.3955 -0.7708 -0.8908
  179SOL    HW2 1958   5.491   6.352   4.921 -0.5212 -0.4218  1.1941
  180SOL     OW 1959   0.018   2.648   4.740 -0.2542  0.5263  0.3016
  180SOL    HW1 1960  -0.063   2.695   4.720 -1.0812 -1.0613 -0.2362
  180SOL    HW2 1961   0.007   2.619   4.831 -0.7730 -0.5545 -0.0830
  181SOL     OW 1962   6.820   4.683   8.056 -0.0573 -0.2432 -0.2192
  181SOL    HW1 1963   6.889   4.620   8.076 -0.8193 -0.6837  1.1626
  181SOL    HW2 1964   6.742   4.629   8.039 -0.4368  0.2740 -0.1654
  182SOL     OW 1965   4.922   6.834   1.826  0.5310 -0.3020 -0.4410
  182SOL    HW1 1966   4.889   6.745   1.819 -0.4924 -0.0245  0.7072
  182SOL    HW2 1967   4.856   6.882   1.876  0.5194  1.3883 -1.9361
  183SOL     OW 1968   3.029   0.897   0.813  0.0620 -0.2457  0.3010
  183SOL    HW1 1969   2.947   0.906   0.862  0.3679 -0.1117  0.7925
  183SOL    HW2 1970   3.005   0.920   0.723 -0.2636  0.6381  0.5989
  184SOL     OW 1971   2.250   2.627   1.702  0.4225  0.5616 -0.2021
  184SOL    HW1 1972   2.161   2.631   1.734 -0.3874 -1.1002 -2.0304
  184SOL    HW2 1973   2.269   2.534   1.691  2.0154  0.8995 -0.7727
  185SOL     OW 1974   2.670   5.203   3.383  0.4912  0.0090  0.3856
  185SOL    HW1 1975   2.731   5.256   3.331 -1.3051  0.7328 -1.0659
  185SOL    HW2 1976   2.726   5.137   3.424  2.3882  1.2146 -0.0966
  186SOL     OW 1977   4.999   4.348   0.029 -0.5335  0.5232 -0.2515
  186SOL    HW1 1978   5.067   4.345  -0.039 -0.1189  0.9135  0.1493
  186SOL    HW2 1979   4.939   4.278   0.004 -0.2777  0.5322 -0.9165
  187SOL     OW 1980   1.318   6.711   2.626  0.3273  0.4241 -0.2074
  187SOL    HW1 1981   1.305   6.726   2.533  1.5377 -1.2263 -0.6747
  187SOL    HW2 1982   1.411   6.728   2.641  0.1842  0.4909  0.6564
  188SOL     OW 1983   2.617   1.655   6.581 -0.6284  0.6434 -0.4382
  188SOL    HW1 1984   2.677   1.604   6.527 -0.8752  1.2675 -1.3294
  188SOL    HW2 1985   2.627   1.619   6.669 -0.5408 -0.6952 -0.9704
  189SOL     OW 1986   7.214   0.507   0.279 -0.1085 -0.7246  0.2731
  189SOL    HW1 1987   7.188   0.534   0.367 -2.1729 -0.4307 -0.3664
  189SOL    HW2 1988   7.291   0.452   0.293  1.9540  2.2811  1.9254
  190SOL     OW 1989   7.622   7.385   4.927 -0.3271  0.1153 -0.3855
  190SOL    HW1 1990   7.703   7.437   4.926  0.0217 -0.3806  0.4993
  190SOL    HW2 1991   7.572   7.421   5.000 -0.2983 -0.4606 -0.0749
  191SOL     OW 1992   6.558   3.356   5.758  0.3142  0.1678  0.0559
  191SOL    HW1 1993   6.597   3.422   5.815 -0.1214 -0.1519  0.7358
  191SOL    HW2 1994   6.624   3.287   5.751 -0.4935 -0.8865  2.0929
  192SOL     OW 1995   1.188   6.185   7.161  0.3443 -0.2394 -0.4520
  192SOL    HW1 1996   1.196   6.190   7.066  0.1492 -2.4238 -0.6202
  192SOL    HW2 1997   1.097   6.209   7.179  0.5959  1.0028 -0.6942
  193SOL     OW 1998   5.301   2.122   4.276  0.3052 -0.1382 -0.4330
  193SOL    HW1 1999   5.263   2.063   4.341  2.3125 -0.7664  0.2124
  193SOL    HW2 2000   5.251   2.104   4.196  1.6955 -3.7705 -0.6550
  194SOL     OW 2001   7.993   3.702   1.666 -0.7342 -0.3118  0.3408
  194SOL    HW1 2002   7.973   3.750   1.745  0.2537  1.5905 -0.5021
  194SOL    HW2 2003   8.084   3.726   1.646 -1.1878 -0.1458 -1.7479
  195SOL     OW 2004   3.790   3.398   1.058  0.1505 -0.4681 -0.1845
  195SOL    HW1 2005   3.862   3.451   1.092  0.0822  0.3510 -1.2586
  195SOL    HW2 2006   3.718   3.414   1.119  0.1621  0.6012 -0.4377
  196SOL     OW 2007   7.475   3.373   1.902  0.0462  0.4596 -0.1316
  196SOL    HW1 2008   7.422   3.335   1.832  0.9539  0.4476 -0.8278
  196SOL    HW2 2009   7.534   3.435   1.858  2.1192 -1.1000  0.2725
  197SOL     OW 2010   7.218   4.922   1.370 -0.1169  0.0071  0.2942
  197SOL    HW1 2011   7.313   4.922   1.370 -0.0966  1.0457 -0.5773
  197SOL    HW2 2012   7.193   4.861   1.439  1.1751  0.3859  1.1163
  198SOL     OW 2013   4.709   5.841   3.176 -0.6028 -0.5843  0.1421
  198SOL    HW1 2014   4.791   5.887   3.165 -0.0596 -1.6311 -0.3873
  198SOL    HW2 2015   4.651   5.903   3.219  0.6398 -0.0266  1.0430
  199SOL     OW 2016   5.805   2.014   3.738 -0.2876 -0.2349  0.1260
  199SOL    HW1 2017   5.758   2.028   3.820 -0.6168  2.2222 -0.3865
  199SOL    HW2 2018   5.888   1.974   3.765 -0.0071  1.3131  1.8167
  200SOL     OW 2019   7.731   0.906   6.767 -0.2138 -0.0358 -0.7334
  200SOL    HW1 2020   7.705   0.988   6.810 -0.1900 -0.9096  1.0298
  200SOL    HW2 2021   7.659   0.887   6.707 -1.5885 -0.0930  0.8385
  201SOL     OW 2022   6.188   3.439   5.187  0.5183 -0.1211  0.5304
  201SOL    HW1 2023   6.232   3.509   5.236  1.1324 -0.5621  0.6111
  201SOL    HW2 2024   6.180   3.368   5.250 -2.1396  0.6122  1.1763
  202SOL     OW 2025   0.722   2.420   3.342 -0.5481 -0.3530  0.3445
  202SOL    HW1 2026   0.639   2.420   3.295 -0.1511 -3.6438 -0.6208
  202SOL    HW2 2027   0.788   2.413   3.273  0.3765 -0.2574  1.1986
  203SOL     OW 2028   0.181   7.141   3.992  0.1861  0.2345 -0.2251
  203SOL    HW1 2029   0.245   7.077   3.962  1.0890  0.9073  0.2190
  203SOL    HW2 2030   0.103   7.090   4.012  0.6978 -0.6429 -0.4443
  204SOL     OW 2031   1.640   5.569   6.989 -0.5870 -0.4667 -0.6854
  204SOL    HW1 2032   1.555   5.590   7.027 -0.8664 -0.0294 -1.5383
  204SOL    HW2 2033   1.623   5.556   6.896  0.0985 -1.5035 -0.6853
  205SOL     OW 2034   6.752   6.296   0.842 -0.3498 -0.1021  0.0386
  205SOL    HW1 2035   6.831   6.347   0.827 -1.1380  1.3042  0.4976
  205SOL    HW2 2036   6.782   6.218   0.888  0.8776 -0.0523 -0.6466
  206SOL     OW 2037   4.602   3.268   1.523 -0.1241  0.1493  0.3612
  206SOL    HW1 2038   4.626   3.176   1.527 -0.7414 -0.0033  0.5763
  206SOL    HW2 2039   4.516   3.269   1.481 -0.0468  0.6441  0.2046
  207SOL     OW 2040   6.792   3.206   0.572  0.2366 -0.3840 -0.0950
  207SOL    HW1 2041   6.837   3.279   0.531  0.0084 -0.6465 -0.8320
  207SOL    HW2 2042   6.707   3.242   0.599 -0.2724 -0.5983 -1.3372
  208SOL     OW 2043   1.637   3.725   0.696 -0.1523  0.0260  0.6440
  208SOL    HW1 2044   1.709   3.788   0.685  2.8171 -3.3158 -1.2058
  208SOL    HW2 2045   1.590   3.728   0.613  1.1417 -1.3456 -0.1893
  209SOL     OW 2046   4.757   7.030   7.641 -0.2736 -0.1048 -0.3910
  209SOL    HW1 2047   4.691   7.099   7.631 -2.1895 -1.9103 -1.0262
  209SOL    HW2 2048   4.721   6.956   7.593  0.5529 -2.3055  2.1437
  210SOL     OW 2049   6.416   2.789   6.970 -0.6631 -0.3277  0.3558
  210SOL    HW1 2050   6.427   2.771   7.064  0.0537 -0.8576  0.1774
  210SOL    HW2 2051   6.486   2.740   6.928 -0.5103  0.5190 -0.4007
  211SOL     OW 2052   7.556   5.488   6.179  0.4132  0.0940  0.4553
  211SOL    HW1 2053   7.557   5.580   6.205 -1.4495  0.0951  0.6504
  211SOL    HW2 2054   7.567   5.490   6.084 -1.0363  0.6497  0.2694
  212SOL     OW 2055   2.736   0.492   0.425 -0.7027  0.9091  0.4011
  212SOL    HW1 2056   2.766   0.401   0.412  2.5134  1.6958  1.3771
  212SOL    HW2 2057   2.642   0.484   0.435 -0.6363 -2.2520 -0.1948
  213SOL     OW 2058   2.069   6.811   1.620 -0.1376  0.1493  0.1439
  213SOL    HW1 2059   2.003   6.851   1.563  0.5256  0.2915 -0.5325
  213SOL    HW2 2060   2.050   6.846   1.707 -0.1549  1.1861 -0.2717
  214SOL     OW 2061   5.348   0.355   1.846  0.0317  0.4095  0.3807
  214SOL    HW1 2062   5.388   0.372   1.931  1.6820 -1.9451  0.1711
  214SOL    HW2 2063   5.297   0.275   1.858 -0.8483  0.8199 -0.5101
  215SOL     OW 2064   2.862   1.096   1.925 -0.5450 -0.3470 -0.0184
  215SOL    HW1 2065   2.798   1.164   1.907 -0.3595 -0.2145 -0.1754
  215SOL    HW2 2066   2.844   1.070   2.015  0.3659  0.9726  0.5740
  216SOL     OW 2067   2.414   0.984   6.465  0.3916 -0.6195 -0.5387
  216SOL    HW1 2068   2.463   0.989   6.383  3.4163  0.4414  1.1783
  216SOL    HW2 2069   2.426   0.893   6.494  0.3476 -0.6744 -0.6915
  217SOL     OW 2070   1.391   7.059   1.374 -0.4265  0.0549 -0.3369
  217SOL    HW1 2071   1.463   7.112   1.408  1.4384 -2.5736  0.0350
  217SOL    HW2 2072   1.366   7.003   1.447 -2.6624  0.6376 -0.5899
  218SOL     OW 2073   5.497   2.743   6.263  0.6165  0.0252  0.2856
  218SOL    HW1 2074   5.476   2.656   6.230 -1.8354  0.6144  0.1074
  218SOL    HW2 2075   5.589   2.737   6.291  1.4424 -1.7538 -2.4085
  219SOL     OW 2076   4.981   1.166   3.371  0.5726 -0.0927 -0.1309
  219SOL    HW1 2077   4.977   1.155   3.466  0.7147 -0.8723 -0.2077
  219SOL    HW2 2078   5.037   1.094   3.341  0.0769 -0.1840 -0.8558
  220SOL     OW 2079   7.506   1.907   8.056  0.8607 -0.9157  0.0701
  220SOL    HW1 2080   7.429   1.904   8.000  1.5387  2.1279 -1.2240
  220SOL    HW2 2081   7.471   1.907   8.145 -0.4160 -2.4830 -0.3912
  221SOL     OW 2082   3.372   4.564   0.498  0.2113  0.0072 -0.0516
  221SOL    HW1 2083   3.319   4.485   0.490 -2.3419  1.7560 -2.0632
  221SOL    HW2 2084   3.438   4.555   0.429  0.3540 -0.6078  0.1546
  222SOL     OW 2085   7.294   7.351   1.792  0.1132  0.5678 -0.3445
  222SOL    HW1 2086   7.261   7.395   1.714 -1.0447 -0.2956 -0.3603
  222SOL    HW2 2087   7.356   7.286   1.758 -0.1253  0.4319 -0.5253
  223SOL     OW 2088   3.383   2.162   0.826  0.1172 -0.0339  0.0081
  223SOL    HW1 2089   3.320   2.213   0.775 -0.9945 -1.8304 -0.4939
  223SOL    HW2 2090   3.462   2.160   0.772 -0.8047 -1.3068 -1.3603
  224SOL     OW 2091   3.465   3.572   5.277 -0.4167  0.5640 -0.0628
  224SOL    HW1 2092   3.402   3.629   5.321  1.8507  1.5307  2.1462
  224SOL    HW2 2093   3.464   3.491   5.329 -2.1526 -0.7655 -2.0034
  225SOL     OW 2094   4.449   0.570   6.243 -0.2955 -0.3248 -0.1407
  225SOL    HW1 2095   4.520   0.629   6.266 -0.7870 -0.1631  1.0564
  225SOL    HW2 2096   4.450   0.504   6.312 -2.2916  0.5756  0.8213
  226SOL     OW 2097   0.874   3.110   0.614  0.7019  0.2158  0.1018
  226SOL    HW1 2098   0.849   3.117   0.522  0.3075  1.6457  0.2835
  226SOL    HW2 2099   0.946   3.048   0.615  0.6255  0.0791 -1.1574
  227SOL     OW 2100   4.942   3.004   4.280  0.0965  0.2032 -0.4258
  227SOL    HW1 2101   4.957   2.910   4.268 -0.2263 -0.0274  0.8504
  227SOL    HW2 2102   4.873   3.026   4.218  0.0285 -0.4444 -0.5852
  228SOL     OW 2103   2.777   7.041   4.785  0.2739  0.2069  0.0037
  228SOL    HW1 2104   2.754   7.119   4.837 -0.0228  0.2116 -0.1299
  228SOL    HW2 2105   2.694   7.015   4.744  0.0807 -0.9496  1.0747
  229SOL     OW 2106   5.076   4.865   3.124  0.3011  0.0025  0.7088
  229SOL    HW1 2107   5.137   4.896   3.056 -0.4765 -0.2261 -0.1103
  229SOL    HW2 2108   5.001   4.924   3.117 -0.7886 -1.4171 -0.2233
  230SOL     OW 2109   6.897   0.182   1.760 -0.1685 -0.5089 -0.0070
  230SOL    HW1 2110   6.809   0.156   1.734 -0.1886  1.2022 -1.8615
  230SOL    HW2 2111   6.943   0.099   1.774 -0.4438 -1.7213 -4.7633
  231SOL     OW 2112   7.459   5.983   8.059 -0.1497 -0.0365  0.1990
  231SOL    HW1 2113   7.532   6.043   8.048 -0.9518  0.9377  0.1049
  231SOL    HW2 2114   7.447   5.944   7.972  0.3101 -0.2658  0.2366
  232SOL     OW 2115   1.069   3.754   3.214 -0.2657 -0.0139  0.1864
  232SOL    HW1 2116   0.981   3.724   3.239 -0.3840 -1.0390 -1.3474
  232SOL    HW2 2117   1.123   3.732   3.290 -1.0410 -0.8198  0.5308
  233SOL     OW 2118   7.271   6.070   3.571  0.7594  0.5261 -0.3404
  233SOL    HW1 2119   7.223   6.077   3.654  1.6133  0.4188  0.1797
  233SOL    HW2 2120   7.350   6.021   3.594 -0.0531 -1.5457 -1.6898
  234SOL     OW 2121   7.126   5.515   4.098 -0.0357  0.6278  0.2358
  234SOL    HW1 2122   7.164   5.460   4.167 -0.4653  0.2561  0.1818
  234SOL    HW2 2123   7.165   5.601   4.111 -0.2362  0.6037  1.0540
  235SOL     OW 2124   3.306   1.180   0.496  0.0314 -0.4161 -0.2569
  235SOL    HW1 2125   3.316   1.275   0.506 -0.6861 -0.2821 -0.7819
  235SOL    HW2 2126   3.377   1.155   0.438  2.2674 -0.7189  2.3640
  236SOL     OW 2127   1.254   8.006   7.078 -0.2414 -0.6119  0.1482
  236SOL    HW1 2128   1.173   7.958   7.063 -0.5476 -0.1340  0.2334
  236SOL    HW2 2129   1.308   7.947   7.131  0.3563 -1.8131 -1.7327
  237SOL     OW 2130   2.254   4.280   7.032 -0.3866 -0.2304  0.5876
  237SOL    HW1 2131   2.294   4.234   6.959 -0.0776  0.0493  0.5766
  237SOL    HW2 2132   2.205   4.213   7.079 -0.9034 -0.3358 -0.0928
  238SOL     OW 2133   5.243   1.879   7.925  0.8280  0.9525 -0.6386
  238SOL    HW1 2134   5.229   1.969   7.896 -0.4092  0.4560 -1.6555
  238SOL    HW2 2135   5.238   1.826   7.845 -0.7514 -0.2551  0.1961
  239SOL     OW 2136   0.994   3.458   4.784 -0.4229 -0.0844 -0.1999
  239SOL    HW1 2137   1.013   3.405   4.707 -0.0942 -0.3047  0.0307
  239SOL    HW2 2138   1.037   3.412   4.856 -0.9060  0.0030  0.1501
  240SOL     OW 2139   3.272   2.673   6.966  0.4361  0.5053  0.2008
  240SOL    HW1 2140   3.253   2.581   6.947 -0.5812  0.8198 -0.3702
  240SOL    HW2 2141   3.296   2.710   6.882  0.5803  0.8254  0.3814
  241SOL     OW 2142   5.976   7.074   4.061  0.3245  0.6395 -0.6574
  241SOL    HW1 2143   6.041   7.023   4.109 -0.4625 -0.6635 -0.9245
  241SOL    HW2 2144   6.020   7.101   3.981  1.0877  1.3188 -0.0264
  242SOL     OW 2145   1.412   2.732   6.136 -0.6742  0.4610 -0.2308
  242SOL    HW1 2146   1.504   2.752   6.122 -0.6135  0.8820  0.7564
  242SOL    HW2 2147   1.412   2.644   6.175 -0.6999  0.4297 -0.3002
  243SOL     OW 2148   6.585   0.507   6.095  0.2232  0.2070 -0.0404
  243SOL    HW1 2149   6.589   0.546   6.008  0.5912  0.0636 -0.0867
  243SOL    HW2 2150   6.505   0.544   6.134 -0.8055 -0.9447 -1.0069
  244SOL     OW 2151   5.450   7.340   7.916 -0.3727 -0.0833 -0.4964
  244SOL    HW1 2152   5.432   7.416   7.860 -0.3735 -0.6878 -1.3348
  244SOL    HW2 2153   5.409   7.362   7.999 -0.8160  0.6281 -0.8856
  245SOL     OW 2154   4.676   2.329   7.773 -0.4588  0.5322  0.1800
  245SOL    HW1 2155   4.603   2.376   7.733 -0.5050  0.1510 -0.1831
  245SOL    HW2 2156   4.634   2.266   7.832 -0.5833 -1.6049 -2.0266
  246SOL     OW 2157   2.338   1.584   0.133 -0.1126  0.4741 -0.4191
  246SOL    HW1 2158   2.353   1.667   0.178  0.3230  0.1339  0.0781
  246SOL    HW2 2159   2.378   1.519   0.190 -1.9174 -0.2857  0.0619
  247SOL     OW 2160   0.383   6.495   3.779  0.1602  0.3297 -0.2930
  247SOL    HW1 2161   0.349   6.417   3.735  1.5259 -0.8724  0.6960
  247SOL    HW2 2162   0.422   6.547   3.709 -0.6248  0.0677 -0.9410
  248SOL     OW 2163   0.506   3.853   0.917  0.0839 -0.1842  0.1272
  248SOL    HW1 2164   0.495   3.866   0.823 -1.9426 -0.1319  0.3264
  248SOL    HW2 2165   0.528   3.940   0.951  0.7018 -0.1809 -0.2716
  249SOL     OW 2166   3.925   1.428   4.091 -0.0375 -0.0609 -0.0093
  249SOL    HW1 2167   3.890   1.347   4.052  0.7711 -0.7877  0.7107
  249SOL    HW2 2168   4.011   1.438   4.051  0.2616 -0.0922  0.6283
  250SOL     OW 2169   7.986   0.313   6.883  0.1894 -0.3327  0.2606
  250SOL    HW1 2170   8.013   0.261   6.958 -0.2461 -0.2005  0.5094
  250SOL    HW2 2171   8.041   0.280   6.811  0.9287 -0.1482  0.7264
  251SOL     OW 2172   3.389   0.544   2.162  0.2327  0.0677 -0.2183
  251SOL    HW1 2173   3.414   0.626   2.204  0.4839 -0.3985  0.5741
  251SOL    HW2 2174   3.409   0.556   2.070  2.7271 -0.0230  0.2548
  252SOL     OW 2175   1.567   7.913   1.190  0.4111 -0.9497  0.1056
  252SOL    HW1 2176   1.571   7.818   1.177  1.7372 -1.0793  1.2021
  252SOL    HW2 2177   1.658   7.942   1.183  0.1912  0.0491  1.0994
  253SOL     OW 2178   2.296   2.826   6.974  0.0684 -0.3750 -0.4660
  253SOL    HW1 2179   2.315   2.914   7.005 -1.9312 -0.4603  1.2508
  253SOL    HW2 2180   2.234   2.839   6.902 -1.1056 -0.3680  0.5175
  254SOL     OW 2181   0.941   3.074   4.578 -0.1539  0.2721 -0.1728
  254SOL    HW1 2182   0.901   3.027   4.504  1.1713 -0.6178 -0.3625
  254SOL    HW2 2183   0.968   3.005   4.638 -0.5066  0.9534  0.7940
  255SOL     OW 2184   2.691   0.957   2.604  0.4874  0.2459 -0.0028
  255SOL    HW1 2185   2.729   1.037   2.569  1.2903  0.8524  2.1087
  255SOL    HW2 2186   2.765   0.911   2.644 -0.4149 -0.2105  1.1897
  256SOL     OW 2187   5.837   1.619   5.254  0.0078 -0.5206 -0.1049
  256SOL    HW1 2188   5.872   1.563   5.323  0.3065  0.3435  0.4622
  256SOL    HW2 2189   5.755   1.576   5.228  1.5157 -2.7086 -1.6155
  257SOL     OW 2190   5.412   6.658   7.351 -0.0858 -0.2085  0.2404
  257SOL    HW1 2191   5.340   6.606   7.388  0.3108 -0.6977  0.3371
  257SOL    HW2 2192   5.395   6.747   7.381 -1.3181 -0.0808 -0.7209
  258SOL     OW 2193   0.795   3.520   2.168  0.1148 -0.3436 -0.1514
  258SOL    HW1 2194   0.752   3.552   2.248  0.8550 -0.9789  0.5214
  258SOL    HW2 2195   0.856   3.590   2.144 -0.3889  0.0194 -0.3982
  259SOL     OW 2196   6.516   1.364   7.311 -0.2848  0.0799 -0.4463
  259SOL    HW1 2197   6.557   1.408   7.385 -2.9736  1.8715  0.1297
  259SOL    HW2 2198   6.430   1.336   7.345 -0.7681 -0.8813 -2.3374
  260SOL     OW 2199   5.343   7.919   6.671  0.9329 -0.6069 -0.2245
  260SOL    HW1 2200   5.429   7.961   6.678  0.7930 -0.0415 -1.4873
  260SOL    HW2 2201   5.358   7.843   6.615  0.5506 -0.2910 -0.7668
  261SOL     OW 2202   0.796   4.477   4.181 -0.3987  0.3027 -0.3275
  261SOL    HW1 2203   0.887   4.464   4.205 -0.4604  0.0154 -0.2430
  261SOL    HW2 2204   0.763   4.541   4.244 -0.5014 -0.2841  0.2300
  262SOL     OW 2205   1.002   5.809   0.356  0.8750  0.1421  0.1185
  262SOL    HW1 2206   1.019   5.901   0.339  1.6464  0.1465  0.8331
  262SOL    HW2 2207   0.993   5.804   0.452 -0.3104 -0.3399 -0.0089
  263SOL     OW 2208   2.052   6.791   6.594 -0.3497  0.1760  0.9260
  263SOL    HW1 2209   1.973   6.843   6.580  0.1672  0.4665 -1.2419
  263SOL    HW2 2210   2.045   6.719   6.531  1.1891  0.3252  0.5515
  264SOL     OW 2211   2.150   6.565   2.632 -0.0632 -0.4503  0.1063
  264SOL    HW1 2212   2.193   6.480   2.640  2.1848  0.3731 -2.1613
  264SOL    HW2 2213   2.221   6.628   2.620 -1.7200  1.6311  0.5424
  265SOL     OW 2214   0.718   0.535   3.192  0.4425  0.3099  0.9342
  265SOL    HW1 2215   0.696   0.566   3.104 -0.7826 -0.9814  0.7446
  265SOL    HW2 2216   0.807   0.567   3.207 -0.2004  2.6181  0.2118
  266SOL     OW 2217   0.952   0.308   0.156 -0.6938  0.2850  0.1727
  266SOL    HW1 2218   0.960   0.284   0.064  1.2142 -0.2176  0.4313
  266SOL    HW2 2219   0.982   0.399   0.159 -0.2311  0.1261  0.3735
  267SOL     OW 2220   4.526   7.304   7.912 -0.1292  0.6790  0.1049
  267SOL    HW1 2221   4.605   7.264   7.949 -1.1799 -1.0586  0.5875
  267SOL    HW2 2222   4.537   7.294   7.817  0.1063  0.1918  0.1790
  268SOL     OW 2223   6.578   0.474   1.900 -0.5265 -0.0165  0.0719
  268SOL    HW1 2224   6.538   0.393   1.867 -0.7994  0.7639 -1.6256
  268SOL    HW2 2225   6.589   0.459   1.994 -2.3057 -1.3172  0.1284
  269SOL     OW 2226   1.781   1.545   1.229  0.4103  0.1389 -0.0878
  269SOL    HW1 2227   1.694   1.582   1.244  1.4716  2.2583  1.5543
  269SOL    HW2 2228   1.766   1.451   1.220 -2.0503  0.4509 -0.0225
  270SOL     OW 2229   2.035   3.449   6.884  0.4378  0.6651 -0.2413
  270SOL    HW1 2230   1.986   3.472   6.963  0.1640  2.4185 -0.8614
  270SOL    HW2 2231   1.969   3.419   6.822  0.8441 -2.6348  0.7271
  271SOL     OW 2232   3.302   0.239   1.523  0.0358 -0.5336  0.6551
  271SOL    HW1 2233   3.328   0.216   1.612  0.5504 -2.1809  0.1053
  271SOL    HW2 2234   3.310   0.158   1.473 -0.5209  0.2875 -0.8427
  272SOL     OW 2235   0.926   3.699   5.384 -0.0928 -0.0721  0.1308
  272SOL    HW1 2236   0.874   3.738   5.314 -0.7816 -3.1607 -1.2448
  272SOL    HW2 2237   0.862   3.653   5.439  0.2935  3.0574  3.5565
  273SOL     OW 2238   0.588   5.950   7.703  0.0291  0.3570 -0.0160
  273SOL    HW1 2239   0.652   5.898   7.654  0.8959 -0.5030  1.9253
  273SOL    HW2 2240   0.504   5.926   7.665  0.5332 -1.4650 -0.0547
  274SOL     OW 2241   4.920   3.378   0.100  0.5995  0.4528  0.9738
  274SOL    HW1 2242   4.933   3.392   0.193 -0.3452 -0.0491  1.1864
  274SOL    HW2 2243   4.994   3.423   0.059  1.9153 -0.6750  2.0288
  275SOL     OW 2244   5.998   0.318   2.816 -0.1169 -0.6210  0.1879
  275SOL    HW1 2245   6.015   0.229   2.784  0.5894 -0.3824 -0.1230
  275SOL    HW2 2246   6.073   0.337   2.873  1.0071  0.6524 -1.6115
  276SOL     OW 2247   3.367   7.863   7.671  0.1307  0.7915 -0.0454
  276SOL    HW1 2248   3.326   7.778   7.652 -0.3259  1.0168 -0.0809
  276SOL    HW2 2249   3.460   7.847   7.660 -0.0364  0.6313 -1.4210
  277SOL     OW 2250   3.514   1.050   0.879  0.0148  0.2339  0.9235
  277SOL    HW1 2251   3.533   0.988   0.809  1.7614  0.1067  1.4739
  277SOL    HW2 2252   3.560   1.130   0.853  0.9091  0.0963  2.0472
  278SOL     OW 2253   2.124   0.173   1.400 -0.3720  0.4758 -0.6201
  278SOL    HW1 2254   2.186   0.236   1.363  0.3548 -0.4470 -1.0276
  278SOL    HW2 2255   2.161   0.087   1.377 -0.8065 -0.1128  0.7631
  279SOL     OW 2256   2.906   4.282   8.056 -0.1789 -0.2521  0.2466
  279SOL    HW1 2257   2.948   4.358   8.017  1.6899 -0.2281  2.1297
  279SOL    HW2 2258   2.826   4.270   8.005 -0.0424  2.3575 -0.7325
  280SOL     OW 2259   6.192   4.753   4.565  0.3195  0.1606  0.1941
  280SOL    HW1 2260   6.119   4.737   4.625  0.9396 -0.7943  0.7159
  280SOL    HW2 2261   6.252   4.809   4.615 -0.6386  2.1101 -0.7105
  281SOL     OW 2262   1.693   0.399   7.824 -0.1298  0.2218 -0.0509
  281SOL    HW1 2263   1.614   0.354   7.854 -2.0923  1.8126 -2.4138
  281SOL    HW2 2264   1.745   0.332   7.781  0.1014 -0.9522  1.9560
  282SOL     OW 2265   0.088   7.754   0.818  0.0034  0.5506 -0.5111
  282SOL    HW1 2266   0.141   7.691   0.768  0.5144  1.0186 -0.5697
  282SOL    HW2 2267   0.053   7.703   0.891  0.3159  0.1724 -0.6202
  283SOL     OW 2268   2.778   1.670   0.408 -0.2918 -0.3424  0.1814
  283SOL    HW1 2269   2.856   1.705   0.366 -0.0887  0.6793  1.3574
  283SOL    HW2 2270   2.801   1.578   0.427  0.7863  0.0429  0.8517
  284SOL     OW 2271   6.105   6.867   0.970 -0.4968 -0.4594  0.2163
  284SOL    HW1 2272   6.170   6.894   1.035  0.0867  0.8377 -0.8324
  284SOL    HW2 2273   6.032   6.928   0.982 -0.1230  0.2111 -0.6937
  285SOL     OW 2274   2.739   4.097   2.211  0.2179 -0.7260 -0.6003
  285SOL    HW1 2275   2.658   4.103   2.262 -1.7001 -3.1034 -3.0563
  285SOL    HW2 2276   2.783   4.020   2.246  0.2635 -0.7888 -0.8000
  286SOL     OW 2277   4.334   6.382   4.308 -0.6069 -0.1333  0.0175
  286SOL    HW1 2278   4.248   6.354   4.340  0.5803 -0.4266  3.3364
  286SOL    HW2 2279   4.330   6.478   4.310 -0.3971 -0.1258  1.8097
  287SOL     OW 2280   7.164   3.199   5.691  0.1417 -0.2458 -0.1318
  287SOL    HW1 2281   7.219   3.139   5.740 -0.0446 -2.5147 -2.4856
  287SOL    HW2 2282   7.106   3.142   5.639 -0.1648  1.9357 -2.3782
  288SOL     OW 2283   5.541   3.883   5.777 -0.3310  0.4905 -0.3143
  288SOL    HW1 2284   5.610   3.948   5.791 -1.1145  1.4250 -0.6902
  288SOL    HW2 2285   5.460   3.931   5.790 -0.9951  0.1633 -2.7048
  289SOL     OW 2286   6.315   2.121   7.951  0.6581 -0.4180  0.1477
  289SOL    HW1 2287   6.263   2.107   7.872 -0.9575  0.3245  1.0331
  289SOL    HW2 2288   6.360   2.204   7.936  1.1339 -0.7694 -0.3870
  290SOL     OW 2289   4.362   3.420   6.651 -0.1773 -0.0597  0.3800
  290SOL    HW1 2290   4.438   3.458   6.694 -0.4030  1.5807 -0.5655
  290SOL    HW2 2291   4.394   3.339   6.611  1.0210  0.4920  0.1807
  291SOL     OW 2292   4.060   3.071   4.455 -0.1034  0.0352  0.1776
  291SOL    HW1 2293   4.032   3.091   4.544  0.8584 -2.3868  1.1235
  291SOL    HW2 2294   4.004   2.997   4.428 -0.3946  0.7387 -1.2578
  292SOL     OW 2295   0.576   7.787   5.679  0.3407 -0.3182  0.2810
  292SOL    HW1 2296   0.595   7.694   5.665  0.6802  0.1462 -3.4218
  292SOL    HW2 2297   0.485   7.797   5.653  0.6340  0.5193 -0.5099
  293SOL     OW 2298   1.212   0.219   5.999 -0.3904  0.4090  0.2708
  293SOL    HW1 2299   1.259   0.270   6.064  0.6922 -0.2178  0.0076
  293SOL    HW2 2300   1.218   0.270   5.918  1.0530 -0.2851 -0.0952
  294SOL     OW 2301   7.550   1.305   0.538  0.0161  0.2924 -0.3074
  294SOL    HW1 2302   7.462   1.289   0.503  0.6078  0.1258 -1.7615
  294SOL    HW2 2303   7.549   1.265   0.625 -1.7203  1.3333  0.2022
  295SOL     OW 2304   3.325   2.327   6.361 -0.3857  0.4758  0.2378
  295SOL    HW1 2305   3.243   2.320   6.410 -0.0554 -0.0035  0.7302
  295SOL    HW2 2306   3.306   2.284   6.277 -0.3944 -0.3817  0.6689
  296SOL     OW 2307   4.301   1.549   2.853 -0.2968 -0.1174  0.6544
  296SOL    HW1 2308   4.241   1.622   2.841  2.8858  2.3327 -2.3838
  296SOL    HW2 2309   4.345   1.567   2.937 -1.2734 -0.0198  1.1604
  297SOL     OW 2310   3.655   0.044   1.402 -0.0587  0.1338  0.2395
  297SOL    HW1 2311   3.641  -0.031   1.459  3.1533 -0.4475  0.4060
  297SOL    HW2 2312   3.653   0.008   1.314 -0.6808  0.2803  0.1847
  298SOL     OW 2313   7.318   3.354   2.673  0.5241  0.0460  0.1335
  298SOL    HW1 2314   7.280   3.441   2.668 -0.9000 -0.5873 -0.7881
  298SOL    HW2 2315   7.307   3.329   2.765 -0.0541  0.4240  0.1737
  299SOL     OW 2316   3.148   2.676   3.598  0.0971  0.8545 -0.1664
  299SOL    HW1 2317   3.092   2.618   3.546 -0.6289  1.2045  0.2093
  299SOL    HW2 2318   3.093   2.753   3.615  0.0504  0.4375  1.7319
  300SOL     OW 2319   6.021   0.422   2.558  0.4551  0.4680  0.1096
  300SOL    HW1 2320   6.020   0.391   2.649 -0.6794  0.8816  0.2564
  300SOL    HW2 2321   6.113   0.442   2.541  0.6214  0.9091  1.3580
  301SOL     OW 2322   2.804   5.642   2.811  0.0995 -0.3890 -0.4404
  301SOL    HW1 2323   2.762   5.642   2.897 -0.4331  0.1650 -0.6872
  301SOL    HW2 2324   2.803   5.734   2.785  0.1813 -0.5648 -1.0747
  302SOL     OW 2325   3.718   3.681   0.669  0.1537  0.1758  0.6863
  302SOL    HW1 2326   3.698   3.624   0.594 -1.5372  1.5599  0.0021
  302SOL    HW2 2327   3.747   3.621   0.738 -2.0333 -1.6127  0.1922
  303SOL     OW 2328   6.731   6.038   6.929 -0.0064 -0.0180  0.2495
  303SOL    HW1 2329   6.701   5.994   7.009  0.3846  0.6024  0.7454
  303SOL    HW2 2330   6.651   6.069   6.887 -0.3605 -1.7195 -0.4465
  304SOL     OW 2331   1.216   0.968   3.006  0.3624 -0.0196  0.5850
  304SOL    HW1 2332   1.209   1.033   3.075 -2.1816 -0.7617  1.1339
  304SOL    HW2 2333   1.228   1.019   2.926  1.0439  0.9614  1.2896
  305SOL     OW 2334   4.845   6.519   0.838 -0.3164 -0.3551  0.1623
  305SOL    HW1 2335   4.799   6.445   0.799  1.8614 -1.1429 -1.1106
  305SOL    HW2 2336   4.811   6.595   0.792 -1.5682 -0.6903  0.4899
  306SOL     OW 2337   1.794   6.612   5.475 -0.2251 -0.0967  0.7838
  306SOL    HW1 2338   1.777   6.689   5.528 -0.6429 -0.8142  1.7238
  306SOL    HW2 2339   1.847   6.556   5.531 -2.2636 -1.7107  1.2265
  307SOL     OW 2340   2.888   2.238   3.441 -0.6871  0.5377 -0.0976
  307SOL    HW1 2341   2.875   2.148   3.411 -1.0899  0.3054  0.7541
  307SOL    HW2 2342   2.842   2.242   3.525  2.1784  0.5826  1.5667
  308SOL     OW 2343   0.213   4.951   3.936  0.4205  0.4407 -0.1197
  308SOL    HW1 2344   0.268   4.892   3.987 -0.3083 -1.8174 -1.7676
  308SOL    HW2 2345   0.176   5.011   4.000  1.2482 -0.8676  1.6591
  309SOL     OW 2346   7.892   0.875   3.447  0.4569 -0.3662 -0.3237
  309SOL    HW1 2347   7.819   0.816   3.461  0.4582 -0.6474 -1.4386
  309SOL    HW2 2348   7.917   0.863   3.355  1.1679  0.5519 -0.2767
  310SOL     OW 2349   2.294   2.326   7.894  0.7090  0.4265 -0.2922
  310SOL    HW1 2350   2.333   2.269   7.828 -0.1887 -0.6678  0.0888
  310SOL    HW2 2351   2.215   2.361   7.853 -1.4544 -2.4766  1.0170
  311SOL     OW 2352   3.581   6.074   2.119 -0.0729 -0.0600  0.1063
  311SOL    HW1 2353   3.559   6.164   2.145 -3.5910 -0.7797  0.1258
  311SOL    HW2 2354   3.572   6.023   2.200 -0.0386 -0.7273 -0.3045
  312SOL     OW 2355   1.240   7.976   0.422 -0.4827  0.1501  0.6483
  312SOL    HW1 2356   1.209   8.019   0.502 -0.8144  0.1728  0.5090
  312SOL    HW2 2357   1.198   8.023   0.351 -1.6221 -0.9969  0.5268
  313SOL     OW 2358   3.794   4.474   7.676 -0.0296 -0.5788  0.1520
  313SOL    HW1 2359   3.743   4.410   7.627  1.2325 -0.6809 -1.1239
  313SOL    HW2 2360   3.758   4.558   7.650  1.6161 -0.5118 -2.3739
  314SOL     OW 2361   5.164   2.392   6.183  0.5624  0.0617  0.2027
  314SOL    HW1 2362   5.125   2.304   6.183 -0.5349  0.4895 -1.9521
  314SOL    HW2 2363   5.096   2.448   6.221  0.9816  0.1328  0.8842
  315SOL     OW 2364   6.443   4.407   3.109 -0.4180 -0.3269  0.0618
  315SOL    HW1 2365   6.464   4.320   3.075  0.7556 -0.3364  0.7822
  315SOL    HW2 2366   6.424   4.459   3.031 -0.7948 -1.1311 -0.3955
  316SOL     OW 2367   2.330   3.540   7.630  0.0167 -0.8598  0.5624
  316SOL    HW1 2368   2.309   3.550   7.723 -1.1967 -0.4001  0.2651
  316SOL    HW2 2369   2.378   3.457   7.625  1.5878 -0.0792  1.8037
  317SOL     OW 2370   1.678   6.526   7.145 -0.1316  0.1234  0.2534
  317SOL    HW1 2371   1.734   6.603   7.141 -0.6260  0.5330  0.8947
  317SOL    HW2 2372   1.718   6.469   7.211  1.1677 -0.9653 -1.3997
  318SOL     OW 2373   6.463   7.468   7.262 -0.4287 -0.0006  0.2543
  318SOL    HW1 2374   6.533   7.405   7.249  0.1997  0.9423 -1.1829
  318SOL    HW2 2375   6.387   7.428   7.220 -1.1927 -1.6137  2.9264
  319SOL     OW 2376   0.471   2.743   4.940 -0.3202 -0.2216  0.1967
  319SOL    HW1 2377   0.408   2.723   5.009  0.2221 -0.6155  0.5953
  319SOL    HW2 2378   0.428   2.717   4.859 -1.1928  0.7898  0.3174
  320SOL     OW 2379   3.176   7.415   6.224  0.7546  0.2185  0.2960
  320SOL    HW1 2380   3.195   7.502   6.259  0.6017  0.1321  0.5953
  320SOL    HW2 2381   3.212   7.355   6.289  0.2004  0.0557  0.4565
  321SOL     OW 2382   7.255   3.825   1.859  0.6935  0.2247  0.0201
  321SOL    HW1 2383   7.209   3.848   1.940  2.3103  1.4137  0.6590
  321SOL    HW2 2384   7.332   3.776   1.889 -0.3412 -2.2276 -1.0495
  322SOL     OW 2385   3.929   5.864   3.499  0.0020  0.5932 -0.0172
  322SOL    HW1 2386   3.837   5.844   3.483 -0.0158  0.0421  0.7111
  322SOL    HW2 2387   3.971   5.778   3.508  0.5980  0.8378 -0.3609
  323SOL     OW 2388   0.605   3.950   3.016  0.4018  0.0161  0.6278
  323SOL    HW1 2389   0.687   3.917   3.052  0.4446  0.0287  0.5424
  323SOL    HW2 2390   0.546   3.955   3.091  0.2684 -0.6436  0.5778
  324SOL     OW 2391   0.268   7.777   6.757 -0.0201  0.9529  0.1002
  324SOL    HW1 2392   0.320   7.725   6.818  0.1380  0.4307 -0.4650
  324SOL    HW2 2393   0.234   7.713   6.695  0.3390  1.5411 -0.7218
  325SOL     OW 2394   2.995   5.745   2.429  0.0707  0.0484  0.0030
  325SOL    HW1 2395   3.025   5.654   2.425  1.5394  0.4871  0.1093
  325SOL    HW2 2396   3.014   5.780   2.342 -2.0423 -0.1529 -0.5941
  326SOL     OW 2397   7.606   6.055   3.915  0.1851 -0.6727  0.2989
  326SOL    HW1 2398   7.651   5.992   3.972  0.0776  0.6398  1.9030
  326SOL    HW2 2399   7.670   6.075   3.846  0.2557 -2.4216 -0.1904
  327SOL     OW 2400   5.692   8.053   6.977  0.6339 -0.0286 -0.0722
  327SOL    HW1 2401   5.723   7.971   6.940  0.7990 -0.3102  0.6752
  327SOL    HW2 2402   5.755   8.075   7.045  0.3194  0.4568  0.0735
  328SOL     OW 2403   0.370   4.353   7.600  0.7011  0.0821 -0.5382
  328SOL    HW1 2404   0.425   4.296   7.653  2.2125  2.4338  0.5853
  328SOL    HW2 2405   0.414   4.357   7.515  0.3126 -0.7791 -0.7870
  329SOL     OW 2406   3.474   1.778   6.602  0.0869 -0.4163  0.3424
  329SOL    HW1 2407   3.535   1.770   6.674  3.2285  0.2872 -2.0341
  329SOL    HW2 2408   3.427   1.860   6.619  2.1413  0.7629  0.7119
  330SOL     OW 2409   0.536   2.204   2.825  0.1152 -0.0526  0.0479
  330SOL    HW1 2410   0.478   2.128   2.830 -1.4515  0.7963 -2.8279
  330SOL    HW2 2411   0.480   2.279   2.845  1.2717  0.5005  1.3580
  331SOL     OW 2412   7.056   5.137   5.584 -0.4033 -0.3903 -0.7582
  331SOL    HW1 2413   7.121   5.190   5.538 -0.7962  0.5594 -0.2390
  331SOL    HW2 2414   7.108   5.079   5.640  0.0159  0.4854 -0.2135
  332SOL     OW 2415   0.755   5.607   4.051 -0.1599  0.9476 -0.1170
  332SOL    HW1 2416   0.713   5.582   4.133 -0.2775  2.4579  0.3035
  332SOL    HW2 2417   0.690   5.586   3.984  0.5428 -1.8422 -0.0658
  333SOL     OW 2418   2.274   4.337   4.495  0.1393 -0.0545  0.4983
  333SOL    HW1 2419   2.304   4.303   4.579 -0.4034  1.4050  1.3163
  333SOL    HW2 2420   2.332   4.411   4.477 -0.0757 -0.0391 -0.1546
  334SOL     OW 2421   7.904   4.106   0.955  0.0457 -0.1798 -0.9889
  334SOL    HW1 2422   7.997   4.090   0.942  0.1468 -1.0020  0.5162
  334SOL    HW2 2423   7.900   4.182   1.014 -0.2925  0.8312 -2.2672
  335SOL     OW 2424   2.174   2.740   2.165  0.1300  0.7420 -0.0656
  335SOL    HW1 2425   2.150   2.689   2.242 -0.0384  0.5475 -0.2475
  335SOL    HW2 2426   2.119   2.819   2.171  1.6310  1.7728  1.1675
  336SOL     OW 2427   5.587   0.746   3.687  0.3888 -0.2773  0.2430
  336SOL    HW1 2428   5.506   0.797   3.686  0.7266  0.5019  3.1530
  336SOL    HW2 2429   5.582   0.692   3.608 -2.3055  0.7112 -0.3876
  337SOL     OW 2430   3.570   1.707   7.566  0.1565  0.5319 -0.1476
  337SOL    HW1 2431   3.648   1.716   7.620  0.3967 -2.2822  0.1220
  337SOL    HW2 2432   3.510   1.773   7.600  1.0771  0.2977  2.1370
  338SOL     OW 2433   7.402   1.162   6.956  0.0995 -0.0090 -0.1860
  338SOL    HW1 2434   7.417   1.228   7.023  1.7973  0.1531 -0.6856
  338SOL    HW2 2435   7.437   1.200   6.876 -0.0792 -0.9949 -0.7567
  339SOL     OW 2436   2.154   5.949   6.769  0.1421  0.0531  0.6545
  339SOL    HW1 2437   2.222   5.899   6.726 -0.2472  0.6308 -0.6723
  339SOL    HW2 2438   2.072   5.914   6.734 -0.1796  0.6218  0.8116
  340SOL     OW 2439   7.273   3.074   5.408  0.0091 -0.1951 -0.0536
  340SOL    HW1 2440   7.188   3.040   5.436 -0.0224  0.3726  0.5514
  340SOL    HW2 2441   7.315   3.103   5.489  0.9975 -0.9435 -0.2844
  341SOL     OW 2442   7.420   3.985   1.682 -0.3480  0.4816  0.0296
  341SOL    HW1 2443   7.342   3.954   1.728  0.6243 -1.9457  0.1834
  341SOL    HW2 2444   7.447   4.062   1.732 -1.5103  0.1936  1.1712
  342SOL     OW 2445   1.441   4.749   6.719 -0.2329 -0.0247 -0.4895
  342SOL    HW1 2446   1.502   4.753   6.646  0.8158  0.6490  0.3833
  342SOL    HW2 2447   1.426   4.841   6.742  0.4592 -0.2364  0.9214
  343SOL     OW 2448   6.479   0.046   2.381  0.0761 -0.5324  0.2513
  343SOL    HW1 2449   6.536   0.118   2.353 -0.1235 -0.8201 -0.9497
  343SOL    HW2 2450   6.407   0.090   2.428  0.2291  0.0015 -0.0046
  344SOL     OW 2451   2.828   0.079   6.216 -0.2506 -0.2880 -0.8350
  344SOL    HW1 2452   2.822   0.020   6.291 -0.4213  0.0552 -0.5769
  344SOL    HW2 2453   2.922   0.083   6.197 -0.0196  0.9825  0.4567
  345SOL     OW 2454   1.590   2.473   0.449 -0.3835 -0.2715  0.2822
  345SOL    HW1 2455   1.663   2.457   0.509 -0.5119  0.0730  0.5299
  345SOL    HW2 2456   1.628   2.527   0.380 -0.4321  0.0080  0.4734
  346SOL     OW 2457   5.634   3.187   3.709 -0.1042 -0.6074 -0.3020
  346SOL    HW1 2458   5.574   3.213   3.779  1.0084 -0.9475  0.8067
  346SOL    HW2 2459   5.699   3.257   3.705 -0.5686 -0.2093 -1.5425
  347SOL     OW 2460   1.343   1.187   7.566  0.1946 -0.5008  0.1545
  347SOL    HW1 2461   1.319   1.165   7.656 -2.2154  0.2258 -0.2351
  347SOL    HW2 2462   1.412   1.124   7.544  1.1082 -0.4692  2.5774
  348SOL     OW 2463   4.268   0.700   6.614  0.1403 -0.4417  0.2176
  348SOL    HW1 2464   4.178   0.704   6.648 -0.5330  0.5937 -1.5683
  348SOL    HW2 2465   4.317   0.760   6.670 -0.1077 -1.4481  1.5734
  349SOL     OW 2466   4.359   6.859   3.169  0.3000  0.3279 -0.2514
  349SOL    HW1 2467   4.439   6.865   3.117 -0.4729  0.4203 -1.4553
  349SOL    HW2 2468   4.289   6.889   3.110 -0.7400 -0.5406  0.4985
  350SOL     OW 2469   5.616   1.622   3.259  0.2925  0.0012 -0.1384
  350SOL    HW1 2470   5.577   1.706   3.282 -0.5771 -0.8868  1.8168
  350SOL    HW2 2471   5.544   1.572   3.220  0.4211 -0.3461  0.0673
  351SOL     OW 2472   0.916   3.401   0.245 -0.1813 -0.7449  0.4918
  351SOL    HW1 2473   1.005   3.399   0.211 -0.2985 -0.2249  0.1505
  351SOL    HW2 2474   0.927   3.411   0.340  0.1281  2.1092  0.2300
  352SOL     OW 2475   6.244   0.589   3.674  0.2068  0.0728 -0.1122
  352SOL    HW1 2476   6.225   0.682   3.660 -0.7495 -0.1198 -0.1865
  352SOL    HW2 2477   6.187   0.564   3.747  0.3963 -0.4726 -0.1488
  353SOL     OW 2478   5.929   4.262   6.870 -0.7714  0.3192 -0.4742
  353SOL    HW1 2479   5.897   4.195   6.809 -1.1125  0.0813 -0.0415
  353SOL    HW2 2480   5.972   4.211   6.939 -0.4745  0.5816 -0.4679
  354SOL     OW 2481   0.269   0.466   2.607  0.0278  0.0687  0.3803
  354SOL    HW1 2482   0.210   0.420   2.667  0.8269 -0.2671  0.9275
  354SOL    HW2 2483   0.259   0.421   2.524 -0.4819  0.0061  0.4729
  355SOL     OW 2484   0.764   6.321   0.790 -0.0449  0.3334 -0.4057
  355SOL    HW1 2485   0.694   6.348   0.731 -1.0082 -1.2582 -0.0499
  355SOL    HW2 2486   0.769   6.391   0.855  0.1417  1.4646 -1.6012
  356SOL     OW 2487   0.971   2.671   4.007  0.4933  0.1808  0.2371
  356SOL    HW1 2488   1.031   2.623   4.064  1.1873 -0.3243 -0.8962
  356SOL    HW2 2489   0.958   2.614   3.932 -2.9257 -0.5738  1.2390
  357SOL     OW 2490   7.320   3.403   3.352 -0.4353  0.0095  0.1873
  357SOL    HW1 2491   7.344   3.327   3.404  0.6393  1.2622  1.5987
  357SOL    HW2 2492   7.381   3.401   3.278  1.4615  0.9373  1.6406
  358SOL     OW 2493   2.336   3.255   2.696 -0.4840 -0.5634  0.0952
  358SOL    HW1 2494   2.406   3.292   2.750 -0.0266 -1.9698  0.5187
  358SOL    HW2 2495   2.271   3.324   2.690  1.9938  1.8283 -2.4676
  359SOL     OW 2496   1.455   2.331   7.196  0.2173 -0.3492  0.0106
  359SOL    HW1 2497   1.460   2.421   7.165  0.8772  0.6513  2.7418
  359SOL    HW2 2498   1.532   2.320   7.251 -0.7812 -1.9797  1.1925
  360SOL     OW 2499   7.822   0.537   7.095  0.1887  0.8194 -0.0684
  360SOL    HW1 2500   7.786   0.490   7.020  0.0236 -1.2483  1.2194
  360SOL    HW2 2501   7.769   0.507   7.169  1.6839  1.1832  1.1882
  361SOL     OW 2502   3.076   7.429   7.988 -0.3274 -0.1081  0.0510
  361SOL    HW1 2503   3.111   7.361   8.045 -0.0440  0.9703  1.2005
  361SOL    HW2 2504   3.151   7.454   7.933 -0.7885 -1.6670 -1.3806
  362SOL     OW 2505   5.287   1.510   1.967 -0.0480 -0.1943  0.6860
  362SOL    HW1 2506   5.351   1.452   1.927 -0.9919  0.9432 -2.8257
  362SOL    HW2 2507   5.230   1.451   2.018  0.8364 -1.9049 -0.2280
  363SOL     OW 2508   7.736   7.155   6.753  0.1128 -0.5228  0.1584
  363SOL    HW1 2509   7.642   7.137   6.760  0.1196  0.0268  2.5079
  363SOL    HW2 2510   7.760   7.124   6.665 -1.6101 -3.7369  0.6675
  364SOL     OW 2511   0.085   7.074   1.078 -0.0295 -0.5707  0.2701
  364SOL    HW1 2512   0.003   7.073   1.030  0.9255 -1.3593 -1.4639
  364SOL    HW2 2513   0.142   7.132   1.027  0.8076 -0.8500  0.8655
  365SOL     OW 2514   0.358   7.371   4.711  0.3675  0.4936 -0.1631
  365SOL    HW1 2515   0.270   7.349   4.682  0.4357 -0.9866  0.6696
  365SOL    HW2 2516   0.407   7.289   4.704  1.2661  0.9213  0.8271
  366SOL     OW 2517   2.753   7.093   7.092 -0.4368  0.0110 -0.0611
  366SOL    HW1 2518   2.799   7.117   7.012  1.1094 -1.0240  0.4553
  366SOL    HW2 2519   2.823   7.084   7.157 -1.3495 -1.7316  0.7445
  367SOL     OW 2520   2.784   1.341   1.263  0.4813 -0.1156 -0.4490
  367SOL    HW1 2521   2.749   1.410   1.207  1.4653 -0.3593 -1.4133
  367SOL    HW2 2522   2.856   1.382   1.311  0.5497 -0.2608 -0.4260
  368SOL     OW 2523   6.218   1.353   3.356 -0.9030  0.2800 -0.4627
  368SOL    HW1 2524   6.202   1.259   3.359 -0.2460  0.1788  0.1768
  368SOL    HW2 2525   6.150   1.391   3.411  0.5295 -0.0861  1.6666
  369SOL     OW 2526   3.143   4.570   3.418 -0.2168  0.1471 -0.2398
  369SOL    HW1 2527   3.158   4.497   3.357 -1.3335  0.2297 -0.6409
  369SOL    HW2 2528   3.071   4.619   3.379  0.2524  1.2478  0.2389
  370SOL     OW 2529   1.187   6.167   7.787  0.1134 -0.0732  0.1308
  370SOL    HW1 2530   1.218   6.148   7.698 -0.7219 -0.2859 -0.1248
  370SOL    HW2 2531   1.202   6.086   7.835  3.5459  0.9764  1.0925
  371SOL     OW 2532   7.498   4.293   1.557  0.1212  0.0007  0.2370
  371SOL    HW1 2533   7.498   4.375   1.508 -1.1292 -0.3447 -0.3974
  371SOL    HW2 2534   7.488   4.225   1.490  0.4420 -0.6267  0.8095
  372SOL     OW 2535   6.446   2.840   5.900 -0.5085 -0.1568 -0.0443
  372SOL    HW1 2536   6.502   2.768   5.869  2.0009  0.8991  1.6785
  372SOL    HW2 2537   6.443   2.901   5.826  0.2029 -0.4886 -0.3672
  373SOL     OW 2538   1.343   5.235   1.475 -0.5252 -0.1416 -0.5943
  373SOL    HW1 2539   1.390   5.226   1.557 -2.4797 -1.9541  0.4206
  373SOL    HW2 2540   1.276   5.166   1.478 -3.4267  2.4010 -1.7842
  374SOL     OW 2541   7.558   0.508   7.925  0.0414 -0.8061 -0.0610
  374SOL    HW1 2542   7.545   0.580   7.987 -4.4444  0.0502 -1.6104
  374SOL    HW2 2543   7.615   0.545   7.858  0.6565  0.0470  0.8962
  375SOL     OW 2544   5.090   0.133   5.611 -0.1365  0.0649 -0.4775
  375SOL    HW1 2545   5.106   0.225   5.592  1.0378 -0.4915 -2.4640
  375SOL    HW2 2546   5.173   0.100   5.645 -0.5882 -0.2473  0.3527
  376SOL     OW 2547   3.959   5.593   3.507  0.0546  0.7378  0.3084
  376SOL    HW1 2548   3.928   5.590   3.417 -0.5135  2.4235  0.4253
  376SOL    HW2 2549   3.943   5.505   3.541  0.1573  0.1240 -1.1805
  377SOL     OW 2550   0.517   0.145   2.820 -0.1627 -0.0607 -0.6438
  377SOL    HW1 2551   0.500   0.215   2.884 -4.2755  0.1371 -1.6298
  377SOL    HW2 2552   0.481   0.066   2.861  0.8399 -0.7857 -1.1359
  378SOL     OW 2553   0.013   5.795   1.246 -0.4089  0.1218  0.0834
  378SOL    HW1 2554  -0.045   5.835   1.181  0.2196 -0.4243 -0.8327
  378SOL    HW2 2555   0.064   5.868   1.280  0.0814  0.2487 -0.9028
  379SOL     OW 2556   2.310   0.028   3.446  0.3951 -0.1724 -0.0095
  379SOL    HW1 2557   2.281   0.107   3.493  0.6899  0.9219 -1.5706
  379SOL    HW2 2558   2.333   0.060   3.359  0.4283 -2.0277 -0.7194
  380SOL     OW 2559   4.848   3.351   3.414  0.3918  0.4475  0.5462
  380SOL    HW1 2560   4.893   3.300   3.482 -0.6007 -1.4572 -0.1844
  380SOL    HW2 2561   4.888   3.322   3.332 -1.5247 -0.6563 -0.0419
  381SOL     OW 2562   1.607   5.691   7.632 -0.1248  0.3040  0.1225
  381SOL    HW1 2563   1.563   5.771   7.662 -0.6680 -0.0492  0.2900
  381SOL    HW2 2564   1.690   5.721   7.595 -1.0022  1.1263 -1.2621
  382SOL     OW 2565   0.193   7.587   7.958  0.1522  0.0091 -0.0083
  382SOL    HW1 2566   0.128   7.642   7.915  0.0735 -0.2872 -0.2751
  382SOL    HW2 2567   0.147   7.552   8.035 -1.3896 -3.2676 -2.1566
  383SOL     OW 2568   2.811   2.363   1.946  0.1686 -0.8116 -0.2003
  383SOL    HW1 2569   2.865   2.427   1.993 -1.2873 -0.1653  0.6483
  383SOL    HW2 2570   2.726   2.368   1.988 -0.5792 -1.7928 -1.5278
  384SOL     OW 2571   5.626   1.873   0.640  0.2670 -0.3274 -0.0270
  384SOL    HW1 2572   5.615   1.962   0.606  1.8073 -0.4829 -1.0745
  384SOL    HW2 2573   5.717   1.870   0.669  0.1291 -1.4524  0.3405
  385SOL     OW 2574   7.162   2.389   0.559 -0.1736  0.6187  0.5703
  385SOL    HW1 2575   7.138   2.347   0.476  0.3224  0.7543  0.3592
  385SOL    HW2 2576   7.248   2.426   0.543 -0.1617  0.8145  1.0893
  386SOL     OW 2577   6.247   1.508   3.113  0.1626 -0.5029 -0.2297
  386SOL    HW1 2578   6.243   1.501   3.208 -1.2528  1.6952 -0.0724
  386SOL    HW2 2579   6.168   1.464   3.082 -1.0761  1.5772 -0.1447
  387SOL     OW 2580   1.426   5.227   3.678  0.2883 -0.2733 -0.2645
  387SOL    HW1 2581   1.471   5.265   3.753 -0.2225 -1.7745  0.8388
  387SOL    HW2 2582   1.485   5.157   3.648  0.7640  0.6865 -1.6533
  388SOL     OW 2583   0.975   4.768   5.259  0.5204 -0.0946 -0.3925
  388SOL    HW1 2584   0.996   4.804   5.173  1.5675 -0.5827 -0.3562
  388SOL    HW2 2585   0.959   4.845   5.314  0.6215  0.2440 -0.8358
  389SOL     OW 2586   6.432   3.710   7.743 -0.7912  0.2816 -0.5474
  389SOL    HW1 2587   6.461   3.795   7.777 -1.0175 -0.0155  0.4241
  389SOL    HW2 2588   6.336   3.715   7.745 -0.8058  0.3462 -1.3755
  390SOL     OW 2589   0.574   1.796   7.058  0.2126  0.3789  0.3485
  390SOL    HW1 2590   0.507   1.729   7.040 -0.2986  1.0860 -0.4338
  390SOL    HW2 2591   0.657   1.753   7.034 -0.1192  0.0627 -0.2667
  391SOL     OW 2592   3.086   2.117   5.243 -0.2403  0.1065 -0.2730
  391SOL    HW1 2593   3.027   2.130   5.318 -1.7000 -1.2991 -1.1035
  391SOL    HW2 2594   3.134   2.199   5.236 -1.2701  0.8885  1.1847
  392SOL     OW 2595   7.916   2.594   7.837 -0.4890  0.3201  0.0613
  392SOL    HW1 2596   7.938   2.541   7.760 -1.5485  1.3418 -0.9883
  392SOL    HW2 2597   7.999   2.632   7.864  0.4929 -2.5531  1.4430
  393SOL     OW 2598   1.636   7.117   3.414 -0.8035  0.4608 -0.4104
  393SOL    HW1 2599   1.573   7.098   3.483 -0.5333 -0.4081 -0.3772
  393SOL    HW2 2600   1.672   7.031   3.391  0.1427  0.8988 -0.6308
  394SOL     OW 2601   3.635   1.447   2.666 -0.4528  0.2145  0.7213
  394SOL    HW1 2602   3.636   1.511   2.595 -1.0700 -0.6829 -0.1263
  394SOL    HW2 2603   3.552   1.402   2.656 -0.0715 -0.6574  1.3586
  395SOL     OW 2604   6.445   2.249   3.597  0.1004 -0.0960 -0.3028
  395SOL    HW1 2605   6.439   2.271   3.504 -0.5595  2.2889  0.2265
  395SOL    HW2 2606   6.456   2.334   3.641  2.3636 -1.2871  1.6776
  396SOL     OW 2607   1.363   1.820   0.188 -0.5472 -0.2642 -0.5649
  396SOL    HW1 2608   1.273   1.825   0.156 -1.3630 -1.2846  1.3944
  396SOL    HW2 2609   1.392   1.911   0.193 -1.5980  0.0949 -0.8851
  397SOL     OW 2610   4.100   2.707   0.310 -0.4965  0.4078  0.1372
  397SOL    HW1 2611   4.030   2.772   0.309 -0.1875  0.7369 -0.2030
  397SOL    HW2 2612   4.181   2.758   0.304 -0.2776 -0.0330 -0.8348
  398SOL     OW 2613   3.627   4.276   2.372 -0.2371  0.0862 -0.1581
  398SOL    HW1 2614   3.555   4.307   2.316  0.2586 -1.1313 -1.5382
  398SOL    HW2 2615   3.583   4.234   2.446 -1.0011 -1.1035 -1.2407
  399SOL     OW 2616   6.251   6.477   4.052 -0.0745 -0.2466 -0.1327
  399SOL    HW1 2617   6.331   6.527   4.070 -1.7227  2.0929  1.2775
  399SOL    HW2 2618   6.227   6.501   3.963 -0.2661  0.6772  0.1561
  400SOL     OW 2619   1.559   0.960   5.596 -0.2690 -0.5135  0.2466
  400SOL    HW1 2620   1.596   0.969   5.683  0.2389 -0.6704  0.0503
  400SOL    HW2 2621   1.469   0.931   5.611  0.1081 -1.4963  0.6956
  401SOL     OW 2622   4.266   2.162   3.857  0.2414  0.1780  0.6253
  401SOL    HW1 2623   4.183   2.186   3.814 -0.1648  0.3419  1.4689
  401SOL    HW2 2624   4.328   2.228   3.827  0.0965 -0.0009 -0.0931
  402SOL     OW 2625   6.995   3.332   7.474  0.2518 -0.0411  0.6474
  402SOL    HW1 2626   6.987   3.425   7.454 -1.5625  0.3288  2.6890
  402SOL    HW2 2627   6.951   3.288   7.402  0.2513  0.7502  0.1575
  403SOL     OW 2628   0.139   7.815   5.951  0.0747 -0.1967  0.3921
  403SOL    HW1 2629   0.193   7.737   5.941 -0.8631 -0.8936  0.7485
  403SOL    HW2 2630   0.091   7.821   5.869  0.6242  0.3954  0.0978
  404SOL     OW 2631   2.608   1.854   0.463 -0.3290  0.1113  0.1367
  404SOL    HW1 2632   2.530   1.825   0.509 -0.8755  1.8053  0.3286
  404SOL    HW2 2633   2.653   1.773   0.438 -0.5839 -0.8682  2.6348
  405SOL     OW 2634   1.668   8.024   4.802  0.1524 -0.7147 -0.2034
  405SOL    HW1 2635   1.589   8.016   4.748  0.3896  0.3754 -0.7332
  405SOL    HW2 2636   1.665   8.113   4.837  1.6876 -0.2569 -1.1294
  406SOL     OW 2637   1.930   3.886   2.240  0.8518 -0.2301 -0.3159
  406SOL    HW1 2638   1.873   3.882   2.163 -2.0886  1.5416  1.5637
  406SOL    HW2 2639   1.873   3.865   2.314  2.5989  1.6635  1.7194
  407SOL     OW 2640   6.900   4.412   7.770 -0.3238 -0.4714 -0.0798
  407SOL    HW1 2641   6.849   4.331   7.776 -0.3191 -0.4716 -0.0424
  407SOL    HW2 2642   6.889   4.440   7.679 -0.8471 -0.1733  0.0749
  408SOL     OW 2643   6.586   6.739   2.248  0.2834  0.3769  0.1234
  408SOL    HW1 2644   6.502   6.786   2.242  0.0203 -0.1802 -0.6752
  408SOL    HW2 2645   6.652   6.807   2.234 -0.0242  0.8386  0.8475
  409SOL     OW 2646   3.915   6.898   5.688  0.6658 -0.0523 -0.2080
  409SOL    HW1 2647   3.908   6.915   5.782  0.9394 -0.2971 -0.1434
  409SOL    HW2 2648   3.936   6.984   5.650  0.0380  0.1488 -0.1056
  410SOL     OW 2649   6.708   1.041   1.341  0.2822 -0.2975  0.3719
  410SOL    HW1 2650   6.634   0.997   1.382  0.5133  0.1323  1.2800
  410SOL    HW2 2651   6.762   0.969   1.306  0.1979 -0.6931  1.0332
  411SOL     OW 2652   5.254   7.693   3.453  0.1675  0.2502  0.3691
  411SOL    HW1 2653   5.324   7.758   3.464  0.3705  0.0624  0.1897
  411SOL    HW2 2654   5.247   7.680   3.359 -1.4032  1.6617  0.2589
  412SOL     OW 2655   1.720   2.522   5.613 -0.2610  0.4515  0.3124
  412SOL    HW1 2656   1.765   2.446   5.576  1.6027  1.3171  0.7295
  412SOL    HW2 2657   1.702   2.497   5.704  0.5762  0.5812  0.5222
  413SOL     OW 2658   3.948   2.609   3.079 -0.2445  0.0886  0.0247
  413SOL    HW1 2659   3.990   2.692   3.101  0.1064 -0.0110 -0.2653
  413SOL    HW2 2660   4.015   2.560   3.031  0.4908 -1.4692  2.4906
  414SOL     OW 2661   4.426   7.350   1.343 -0.0310  0.2195 -0.6946
  414SOL    HW1 2662   4.453   7.399   1.265  1.2951 -0.0657 -0.4235
  414SOL    HW2 2663   4.330   7.347   1.336  0.0166  0.7942 -1.9472
  415SOL     OW 2664   1.830   7.604   7.360  0.3626  0.4172  0.1090
  415SOL    HW1 2665   1.762   7.650   7.310 -0.4663 -0.2268  0.6204
  415SOL    HW2 2666   1.895   7.671   7.380 -1.2133  1.5907  1.5504
  416SOL     OW 2667   3.472   5.950   0.961  0.0734 -0.2019  0.5943
  416SOL    HW1 2668   3.549   5.930   1.015  0.6223 -1.2479 -0.5251
  416SOL    HW2 2669   3.402   5.968   1.023  1.3345  1.2758  1.6522
  417SOL     OW 2670   2.704   7.343   4.140 -0.0005  0.1724  0.1969
  417SOL    HW1 2671   2.636   7.331   4.074  1.7148  1.1983 -1.8651
  417SOL    HW2 2672   2.670   7.411   4.197 -1.6217 -0.8955  0.5841
  418SOL     OW 2673   3.297   2.733   6.343 -0.5811 -1.0032  0.2418
  418SOL    HW1 2674   3.327   2.794   6.411 -1.6377 -0.1777 -0.0072
  418SOL    HW2 2675   3.274   2.654   6.391  0.1425 -0.9751  0.6541
  419SOL     OW 2676   1.850   7.346   3.147  0.4825  0.1255 -0.0936
  419SOL    HW1 2677   1.847   7.275   3.211 -0.6960 -0.5188 -0.8140
  419SOL    HW2 2678   1.937   7.341   3.109  0.6756 -0.4354  0.4195
  420SOL     OW 2679   7.235   0.060   1.478 -0.2783 -0.0006  0.4163
  420SOL    HW1 2680   7.235   0.026   1.568  2.1140  0.4499  0.6510
  420SOL    HW2 2681   7.234  -0.018   1.423 -1.1480 -0.2939  0.8410
  421SOL     OW 2682   0.708   5.106   4.928  0.5580  0.9672  0.3146
  421SOL    HW1 2683   0.627   5.144   4.894  0.7590 -0.4134 -1.8651
  421SOL    HW2 2684   0.766   5.181   4.942 -0.7841  1.8962  1.1662
  422SOL     OW 2685   4.832   6.470   7.497 -0.4652  0.5353 -0.1239
  422SOL    HW1 2686   4.804   6.495   7.585  0.0852  0.5682  0.0500
  422SOL    HW2 2687   4.828   6.552   7.447  1.9888  1.2214  0.6169
  423SOL     OW 2688   0.370   3.229   3.123  0.4322  0.4538  0.4246
  423SOL    HW1 2689   0.344   3.319   3.142 -1.6665 -0.3168  1.5092
  423SOL    HW2 2690   0.432   3.237   3.050 -0.4492  2.6961 -0.1631
  424SOL     OW 2691   0.693   6.211   7.735 -0.1665  0.1860 -0.3510
  424SOL    HW1 2692   0.630   6.139   7.741  0.9368 -0.6975  3.2806
  424SOL    HW2 2693   0.763   6.177   7.678 -1.8324  0.3473 -2.6143
  425SOL     OW 2694   2.647   7.850   3.272  0.5050 -0.0969 -0.0052
  425SOL    HW1 2695   2.650   7.761   3.237 -1.1936 -0.3075  0.2867
  425SOL    HW2 2696   2.611   7.839   3.360 -1.1814  0.9969 -0.5225
  426SOL     OW 2697   6.304   0.550   2.157 -0.6093 -0.3148 -0.1492
  426SOL    HW1 2698   6.241   0.573   2.088 -0.0842 -0.9238 -0.8585
  426SOL    HW2 2699   6.294   0.455   2.167 -0.3491 -0.2957  0.2808
  427SOL     OW 2700   7.178   2.167   5.926  0.2142 -0.0944  0.0244
  427SOL    HW1 2701   7.139   2.225   5.860  1.2080 -0.3916 -0.8444
  427SOL    HW2 2702   7.166   2.214   6.009  2.5888  2.2834 -0.8343
  428SOL     OW 2703   7.268   7.461   1.555 -0.1257  0.4114 -0.5130
  428SOL    HW1 2704   7.253   7.554   1.545  0.2981  0.4444 -0.8588
  428SOL    HW2 2705   7.298   7.431   1.469 -1.3347 -0.2601 -0.7140
  429SOL     OW 2706   5.301   6.925   7.893  0.9222  0.4284 -0.0331
  429SOL    HW1 2707   5.336   6.943   7.980 -2.0328  0.4425  1.2752
  429SOL    HW2 2708   5.283   7.011   7.856 -0.2132  0.4307  0.4660
  430SOL     OW 2709   7.037   0.009   6.673 -0.1394  0.5005  0.2317
  430SOL    HW1 2710   7.101  -0.034   6.616  1.0564  1.2805  0.9545
  430SOL    HW2 2711   6.955   0.007   6.623  0.0286 -1.9539 -0.0593
  431SOL     OW 2712   6.931   3.688   0.501 -0.4053  0.3719  0.1284
  431SOL    HW1 2713   6.970   3.734   0.426  0.3125  1.3647  1.0701
  431SOL    HW2 2714   6.847   3.731   0.515 -0.8168 -0.2323 -0.4930
  432SOL     OW 2715   7.427   1.944   5.197 -0.2197 -0.1725 -0.1088
  432SOL    HW1 2716   7.338   1.912   5.209 -0.2466 -0.3462 -0.7365
  432SOL    HW2 2717   7.475   1.910   5.273  0.0736 -2.8706 -1.3872
  433SOL     OW 2718   2.756   6.166   4.445  0.0997  0.1760 -0.0421
  433SOL    HW1 2719   2.818   6.181   4.373  0.1039 -2.7117 -0.7643
  433SOL    HW2 2720   2.803   6.108   4.505 -0.2111  1.8777  1.9204
  434SOL     OW 2721   4.465   5.125   7.249  0.4138  0.4503 -0.7486
  434SOL    HW1 2722   4.477   5.162   7.161  0.0062  1.0615 -0.5633
  434SOL    HW2 2723   4.409   5.189   7.293 -0.7479 -0.6493 -0.5672
  435SOL     OW 2724   1.951   1.757   3.740  0.1376 -0.0246 -0.4689
  435SOL    HW1 2725   1.888   1.748   3.669 -0.9639  0.1008  0.4520
  435SOL    HW2 2726   1.992   1.671   3.747  0.8398  0.1815 -1.7494
  436SOL     OW 2727   5.091   2.376   1.304  0.0669  0.0401  0.0306
  436SOL    HW1 2728   5.000   2.405   1.305 -0.0663 -0.3711  0.6579
  436SOL    HW2 2729   5.086   2.282   1.282  0.1289 -0.5734  2.3707
  437SOL     OW 2730   1.722   0.226   0.777  0.3256  0.2297  0.1024
  437SOL    HW1 2731   1.671   0.228   0.696  0.8606  0.7023 -0.2268
  437SOL    HW2 2732   1.775   0.146   0.770  0.1996  0.1464  0.0958
  438SOL     OW 2733   6.946   5.488   2.065 -0.6700  0.0037 -0.3670
  438SOL    HW1 2734   6.858   5.456   2.086 -0.1624 -1.3709 -0.2019
  438SOL    HW2 2735   6.996   5.478   2.146  0.0847 -0.9429 -0.9124
  439SOL     OW 2736   5.696   7.214   4.260 -0.4591  0.2681  0.5873
  439SOL    HW1 2737   5.746   7.133   4.263 -2.3112 -0.9714 -0.3802
  439SOL    HW2 2738   5.735   7.263   4.188  1.0337  0.5368  1.5361
  440SOL     OW 2739   1.637   3.674   0.211  0.4076 -0.3223 -0.0963
  440SOL    HW1 2740   1.680   3.754   0.179  1.8224 -0.5667  1.0460
  440SOL    HW2 2741   1.654   3.609   0.144  2.2339 -0.5057  0.4789
  441SOL     OW 2742   2.531   3.870   5.144 -0.2972 -0.0606  0.2018
  441SOL    HW1 2743   2.443   3.834   5.154 -0.0525 -0.6879  0.1574
  441SOL    HW2 2744   2.557   3.847   5.055 -0.8642  1.9036 -0.5239
  442SOL     OW 2745   3.830   7.644   0.394  0.1272  0.4609 -0.2587
  442SOL    HW1 2746   3.874   7.673   0.473 -2.0792  1.3968  0.6966
  442SOL    HW2 2747   3.858   7.706   0.326 -0.6462  1.8159  0.6200
  443SOL     OW 2748   5.811   2.634   5.220 -0.1185  0.5662 -0.2236
  443SOL    HW1 2749   5.860   2.659   5.298  0.3121  0.4330 -0.4532
  443SOL    HW2 2750   5.846   2.690   5.150  1.4844 -1.2609 -0.9495
  444SOL     OW 2751   4.244   2.538   3.961 -0.7456  0.2662  0.7342
  444SOL    HW1 2752   4.223   2.602   4.029  0.2943 -0.6756  2.0041
  444SOL    HW2 2753   4.215   2.579   3.879 -2.2023  1.3527  1.7518
  445SOL     OW 2754   7.042   1.441   1.957 -0.5695  0.0835  0.1311
  445SOL    HW1 2755   7.015   1.399   2.039 -0.2967 -0.8471 -0.2415
  445SOL    HW2 2756   7.037   1.371   1.891 -0.7702  0.8127 -0.6474
  446SOL     OW 2757   2.967   7.325   6.526 -0.3227 -0.3543  0.3892
  446SOL    HW1 2758   3.023   7.387   6.479  0.5677 -1.9139 -0.7045
  446SOL    HW2 2759   2.925   7.273   6.457 -0.4009 -1.5045  1.2632
  447SOL     OW 2760   1.067   5.759   7.344  0.1906  0.5020  0.2037
  447SOL    HW1 2761   1.014   5.791   7.270  0.2880 -0.4904 -0.3138
  447SOL    HW2 2762   1.145   5.814   7.343  0.0210  0.7398 -0.2044
  448SOL     OW 2763   7.580   4.899   4.704  0.5189 -0.0200 -0.0101
  448SOL    HW1 2764   7.529   4.833   4.752 -1.3922  1.2637 -0.1648
  448SOL    HW2 2765   7.514   4.956   4.665  2.0711  0.6438 -1.8334
  449SOL     OW 2766   3.037   2.638   7.827  0.2324 -0.3837  0.3783
  449SOL    HW1 2767   2.974   2.650   7.898 -0.6686  1.4811 -0.6645
  449SOL    HW2 2768   3.102   2.578   7.863 -0.7945 -0.3925  2.3692
  450SOL     OW 2769   7.171   1.923   6.067 -0.2632 -0.4090  0.0329
  450SOL    HW1 2770   7.240   1.966   6.117 -0.5126 -0.2985  0.2834
  450SOL    HW2 2771   7.155   1.981   5.993  0.3002 -0.7076 -0.3367
  451SOL     OW 2772   0.945   7.400   2.717  0.1619 -0.5471 -0.0210
  451SOL    HW1 2773   0.906   7.454   2.786  1.0450 -1.8035  1.5152
  451SOL    HW2 2774   0.933   7.310   2.746  0.8063 -1.1042 -1.3804
  452SOL     OW 2775   4.295   6.791   6.265 -0.1770  0.2271 -0.1346
  452SOL    HW1 2776   4.233   6.815   6.334 -2.7982  1.0108 -2.5496
  452SOL    HW2 2777   4.344   6.718   6.301 -0.0455  1.7746  3.2184
  453SOL     OW 2778   6.252   6.770   5.768 -0.2226 -0.0654 -1.1426
  453SOL    HW1 2779   6.201   6.763   5.688 -1.0291 -1.0461 -0.5624
  453SOL    HW2 2780   6.334   6.811   5.741  0.4079 -2.3025 -2.8759
  454SOL     OW 2781   7.639   3.184   5.115  0.2329  0.5529 -0.8411
  454SOL    HW1 2782   7.554   3.148   5.143  0.8354  0.2545  0.6980
  454SOL    HW2 2783   7.686   3.109   5.078  0.2809  0.4477 -0.5702
  455SOL     OW 2784   6.364   0.815   5.148  0.0319 -0.3365  0.1533
  455SOL    HW1 2785   6.426   0.814   5.075  0.7375 -0.2914  0.7413
  455SOL    HW2 2786   6.330   0.725   5.152  2.0697 -1.1276  1.4802
  456SOL     OW 2787   7.903   1.460   1.308  0.1707 -0.0383  1.2492
  456SOL    HW1 2788   7.882   1.370   1.332  1.0693 -0.6866 -0.2533
  456SOL    HW2 2789   7.898   1.462   1.212 -0.9930  1.8214  1.2983
  457SOL     OW 2790   4.199   2.461   3.518  0.5297 -0.1567  0.3121
  457SOL    HW1 2791   4.214   2.509   3.437 -2.4039 -0.9387 -0.7952
  457SOL    HW2 2792   4.175   2.528   3.582  0.9619  0.2672  0.0341
  458SOL     OW 2793   4.964   2.509   0.763 -0.0482  0.1990  0.4133
  458SOL    HW1 2794   4.926   2.596   0.752 -1.2314 -0.2689  0.6150
  458SOL    HW2 2795   4.905   2.465   0.824  0.8830 -0.5423  0.8023
  459SOL     OW 2796   5.419   1.057   7.682 -0.4453  0.1942  0.0506
  459SOL    HW1 2797   5.457   0.998   7.617  0.3438 -0.5754  1.1754
  459SOL    HW2 2798   5.478   1.133   7.682  0.0445 -0.1819  0.4689
  460SOL     OW 2799   4.992   6.899   0.565 -0.1108  0.3891  0.1186
  460SOL    HW1 2800   4.973   6.975   0.511  0.4449  0.8396  0.5499
  460SOL    HW2 2801   5.043   6.933   0.639 -0.2678 -0.3210  0.5699
  461SOL     OW 2802   4.047   3.105   0.335 -0.3786  0.1992 -0.4931
  461SOL    HW1 2803   4.060   3.170   0.266 -0.4108  1.3227  0.5196
  461SOL    HW2 2804   4.114   3.126   0.401 -0.0942 -1.0904 -0.3472
  462SOL     OW 2805   5.554   7.229   0.251  0.9909  0.1402  0.2614
  462SOL    HW1 2806   5.613   7.167   0.292 -0.1747 -1.3960 -0.2944
  462SOL    HW2 2807   5.467   7.201   0.277  0.2696 -0.1678 -2.2135
  463SOL     OW 2808   4.208   5.818   4.545 -0.3790 -0.1526  0.1303
  463SOL    HW1 2809   4.166   5.855   4.467 -0.7251 -0.6101  0.1007
  463SOL    HW2 2810   4.292   5.785   4.514  0.8480  2.3373  0.4996
  464SOL     OW 2811   3.735   5.399   3.524  0.0342  0.2027 -0.3011
  464SOL    HW1 2812   3.651   5.356   3.506 -0.7565  1.1464  0.9875
  464SOL    HW2 2813   3.713   5.472   3.582  1.7167  0.6439 -0.1667
  465SOL     OW 2814   1.833   6.248   0.611  0.0545 -0.7022  0.0908
  465SOL    HW1 2815   1.802   6.261   0.521  2.2507 -0.1074 -0.6603
  465SOL    HW2 2816   1.762   6.201   0.655 -1.4480 -0.2296 -1.6955
  466SOL     OW 2817   4.970   7.647   4.243 -0.7918 -0.0899  0.1077
  466SOL    HW1 2818   4.893   7.629   4.298  0.4266  0.9411  2.3127
  466SOL    HW2 2819   5.044   7.616   4.295  0.4972  1.6072 -0.6267
  467SOL     OW 2820   1.277   4.953   1.721  0.6753  0.2930  0.1985
  467SOL    HW1 2821   1.310   4.986   1.637  1.1747 -1.4095 -0.3230
  467SOL    HW2 2822   1.182   4.967   1.716  0.7723  0.7851 -0.3755
  468SOL     OW 2823   6.811   3.913   5.155 -0.0857  0.4808  0.0948
  468SOL    HW1 2824   6.787   3.900   5.064 -0.9980  1.1147  0.2213
  468SOL    HW2 2825   6.821   3.825   5.191 -4.2292 -0.0417  0.4879
  469SOL     OW 2826   6.078   7.545   6.149  0.4638 -0.0089 -0.6656
  469SOL    HW1 2827   6.014   7.477   6.129  0.9920 -0.0142 -2.6344
  469SOL    HW2 2828   6.135   7.506   6.215 -0.9606 -0.3586  0.3896
  470SOL     OW 2829   0.332   2.279   6.424  0.5078  0.0745  0.2708
  470SOL    HW1 2830   0.337   2.318   6.512 -0.8875 -1.2847  1.0078
  470SOL    HW2 2831   0.253   2.316   6.385  2.4478  2.6532 -1.5125
  471SOL     OW 2832   1.573   7.620   7.070 -0.3040 -0.1297 -0.0726
  471SOL    HW1 2833   1.549   7.713   7.070  0.2995  0.0609  1.3116
  471SOL    HW2 2834   1.521   7.582   7.142 -0.1901 -0.7672 -0.3167
  472SOL     OW 2835   7.912   1.215   4.239 -0.1787  0.3068  0.4388
  472SOL    HW1 2836   7.925   1.201   4.333 -0.3733 -1.0886  0.2695
  472SOL    HW2 2837   7.999   1.242   4.207  0.6532 -2.0371  0.5472
  473SOL     OW 2838   4.660   7.546   2.997 -0.1839 -0.1189  0.4133
  473SOL    HW1 2839   4.701   7.521   2.915  0.0905  3.7482 -0.7813
  473SOL    HW2 2840   4.613   7.467   3.025  0.1295 -1.7288 -3.1359
  474SOL     OW 2841   5.282   6.065   0.403 -0.1093 -0.4728  0.3058
  474SOL    HW1 2842   5.325   6.065   0.488  0.4270  3.3811  0.1838
  474SOL    HW2 2843   5.189   6.070   0.423 -0.0948 -1.2169  0.6031
  475SOL     OW 2844   7.858   1.538   2.784 -0.4907  0.1043 -0.3543
  475SOL    HW1 2845   7.862   1.551   2.878  0.2795  1.0715 -0.5134
  475SOL    HW2 2846   7.826   1.448   2.774  0.9445 -0.5782  0.8355
  476SOL     OW 2847   1.348   1.426   7.075 -0.0945 -0.4494  0.8136
  476SOL    HW1 2848   1.404   1.487   7.123 -1.4120  1.3694  0.1396
  476SOL    HW2 2849   1.327   1.358   7.140  1.7705 -0.4835  1.4531
  477SOL     OW 2850   2.554   5.136   7.436  0.4112  0.0473 -0.4220
  477SOL    HW1 2851   2.616   5.115   7.366 -0.1753 -1.1454 -0.6010
  477SOL    HW2 2852   2.610   5.158   7.511  1.0519 -0.6585 -0.6849
  478SOL     OW 2853   7.118   7.933   5.962 -0.1078 -0.0899  0.2814
  478SOL    HW1 2854   7.120   7.869   6.033 -1.2372  1.0975  1.4746
  478SOL    HW2 2855   7.026   7.960   5.957 -0.1486 -0.4296 -1.9605
  479SOL     OW 2856   1.444   0.789   5.155 -0.0641  0.2892  0.1653
  479SOL    HW1 2857   1.378   0.856   5.139  1.0880  1.0676 -1.6821
  479SOL    HW2 2858   1.482   0.812   5.240  1.1457  2.7799 -0.9603
  480SOL     OW 2859   0.189   0.289   6.061  0.0857 -0.3215 -0.5465
  480SOL    HW1 2860   0.147   0.215   6.017  0.3032 -1.3041  0.8164
  480SOL    HW2 2861   0.123   0.318   6.125  1.1287 -1.3894  1.0857
  481SOL     OW 2862   6.496   0.968   7.704  0.2941  0.2487 -0.3485
  481SOL    HW1 2863   6.485   0.916   7.625  1.4765 -1.2038  0.3841
  481SOL    HW2 2864   6.585   0.949   7.734  0.0663  1.1606  1.0392
  482SOL     OW 2865   0.206   5.173   2.209  0.2128 -0.5437  0.3965
  482SOL    HW1 2866   0.165   5.089   2.187  0.6790 -0.7973  0.4855
  482SOL    HW2 2867   0.263   5.153   2.284 -2.0053  0.4545  2.5145
  483SOL     OW 2868   5.649   5.223   4.114  0.2617  0.1746  0.1528
  483SOL    HW1 2869   5.564   5.179   4.113 -0.4837  1.4684  1.7238
  483SOL    HW2 2870   5.635   5.302   4.166  1.9187  1.5153 -1.2802
  484SOL     OW 2871   2.691   7.613   5.517  0.2606 -0.3070  0.1108
  484SOL    HW1 2872   2.625   7.661   5.468 -0.8063 -0.3097  1.4638
  484SOL    HW2 2873   2.738   7.680   5.567  0.4507 -0.4271  0.0974
  485SOL     OW 2874   6.975   6.189   8.045 -0.0611  0.5529 -0.0558
  485SOL    HW1 2875   7.001   6.180   8.137 -0.2247 -0.8698 -0.1310
  485SOL    HW2 2876   6.943   6.103   8.021 -0.4736  1.0431 -1.3246
  486SOL     OW 2877   6.042   4.416   5.707 -0.4872  0.1192 -0.0015
  486SOL    HW1 2878   5.961   4.414   5.654 -1.1662  2.4381  0.7915
  486SOL    HW2 2879   6.110   4.387   5.647 -1.7516 -0.8964 -1.0178
  487SOL     OW 2880   0.176   5.879   7.779  0.0094  0.2857  0.2292
  487SOL    HW1 2881   0.238   5.924   7.722  1.5514 -1.8795  0.0427
  487SOL    HW2 2882   0.220   5.797   7.801 -2.2888 -0.7800  1.1765
  488SOL     OW 2883   3.172   6.122   1.860 -0.1043  0.7513  0.7322
  488SOL    HW1 2884   3.257   6.163   1.879  0.9261 -1.0923  0.4027
  488SOL    HW2 2885   3.163   6.054   1.927 -0.8257  0.2658  0.1548
  489SOL     OW 2886   8.061   2.301   3.668 -0.7704  0.5917 -0.1276
  489SOL    HW1 2887   8.021   2.231   3.616 -1.8215  0.4126  0.8621
  489SOL    HW2 2888   8.152   2.274   3.679  0.0428  1.6126 -3.4963
  490SOL     OW 2889   0.499   0.007   0.087  0.3588 -0.2759 -0.3393
  490SOL    HW1 2890   0.582   0.026   0.043  0.7661 -1.4368 -0.0951
  490SOL    HW2 2891   0.498  -0.088   0.097  0.3064 -0.0597  2.2143
  491SOL     OW 2892   1.079   1.482   6.292 -0.4821 -0.1805  0.2304
  491SOL    HW1 2893   1.159   1.482   6.240 -1.0008 -1.1810 -0.6115
  491SOL    HW2 2894   1.100   1.535   6.370  0.5589  0.6788 -0.6071
  492SOL     OW 2895   0.151   4.042   3.673  0.2818 -0.4575 -0.3555
  492SOL    HW1 2896   0.072   3.987   3.680 -0.7214  0.9935  0.1839
  492SOL    HW2 2897   0.223   3.982   3.691 -0.8684 -1.3439  1.7082
  493SOL     OW 2898   3.186   3.991   3.590  0.2829  0.0166 -0.0906
  493SOL    HW1 2899   3.134   3.953   3.519 -0.8264  2.6431 -0.8301
  493SOL    HW2 2900   3.222   3.916   3.637  0.2897 -1.8596 -2.8491
  494SOL     OW 2901   1.037   4.192   2.291 -0.2484 -0.0154  0.0129
  494SOL    HW1 2902   1.125   4.217   2.263  0.7867 -2.4552  0.7626
  494SOL    HW2 2903   1.012   4.122   2.230 -1.3504  0.1532  0.2623
  495SOL     OW 2904   6.877   1.598   6.139  0.0441 -0.3405  0.3967
  495SOL    HW1 2905   6.897   1.515   6.185 -0.6441 -1.7997 -1.7985
  495SOL    HW2 2906   6.783   1.609   6.150  0.3085  0.8788  1.7379
  496SOL     OW 2907   5.474   7.559   4.395 -0.3115  0.2973 -0.6094
  496SOL    HW1 2908   5.545   7.588   4.338 -0.3191 -1.9225 -1.8702
  496SOL    HW2 2909   5.493   7.467   4.412 -0.6655  0.6918  2.5326
  497SOL     OW 2910   0.858   1.756   6.116  0.6279 -0.1203 -0.2106
  497SOL    HW1 2911   0.894   1.803   6.191  0.9311  1.0268 -1.0420
  497SOL    HW2 2912   0.904   1.672   6.115  0.9557  0.0431  0.6050
  498SOL     OW 2913   5.622   4.514   7.534 -0.1991  0.0365 -0.4362
  498SOL    HW1 2914   5.594   4.585   7.592  0.8957 -0.1128  0.3078
  498SOL    HW2 2915   5.580   4.533   7.450 -1.2158  0.6662  0.1953
  499SOL     OW 2916   7.384   4.319   6.657 -0.2831  0.4028 -0.4295
  499SOL    HW1 2917   7.444   4.355   6.592  0.7512  0.8041  0.7226
  499SOL    HW2 2918   7.329   4.393   6.683  1.0265  0.9228  1.0262
  500SOL     OW 2919   3.775   6.868   5.179 -0.1286  0.2598  0.2913
  500SOL    HW1 2920   3.808   6.867   5.268  0.9055 -0.3558 -0.0879
  500SOL    HW2 2921   3.783   6.959   5.151  1.4607  0.0924  0.1378
  501SOL     OW 2922   7.992   0.395   7.643  0.6901  0.4927  0.2232
  501SOL    HW1 2923   8.044   0.460   7.689  0.0361  0.4887  0.9836
  501SOL    HW2 2924   8.054   0.325   7.622  0.6433 -0.4981  2.9875
  502SOL     OW 2925   7.808   2.616   0.762  0.2971 -0.1411 -0.2629
  502SOL    HW1 2926   7.857   2.680   0.814  1.3071  0.3930 -1.8170
  502SOL    HW2 2927   7.820   2.533   0.809  1.5666  0.2439  0.1237
  503SOL     OW 2928   5.687   5.552   7.303 -0.4161 -0.0654 -0.7361
  503SOL    HW1 2929   5.669   5.489   7.372  0.1752  2.8567  2.3137
  503SOL    HW2 2930   5.611   5.610   7.304  0.2058  0.7951 -1.6331
  504SOL     OW 2931   7.072   3.687   6.853  0.4463 -0.1208  0.1309
  504SOL    HW1 2932   7.051   3.596   6.874  0.4342  0.0694  1.0152
  504SOL    HW2 2933   7.163   3.697   6.883  0.5516  0.0696 -0.2547
  505SOL     OW 2934   7.053   7.455   0.314  0.1362  0.2187  0.3719
  505SOL    HW1 2935   7.002   7.374   0.315  0.1485  0.2157  1.0489
  505SOL    HW2 2936   7.090   7.461   0.402 -1.3708  1.9216  0.9552
  506SOL     OW 2937   7.584   3.230   7.286  0.7719 -0.0095  0.5344
  506SOL    HW1 2938   7.594   3.147   7.333  1.4345 -0.5257 -0.4886
  506SOL    HW2 2939   7.531   3.285   7.345  1.2793 -0.7545  1.7223
  507SOL     OW 2940   5.167   7.049   5.229 -1.1592  0.2168 -0.0787
  507SOL    HW1 2941   5.156   6.955   5.212 -0.1877  0.2249 -0.8666
  507SOL    HW2 2942   5.082   7.087   5.208 -1.3471 -0.4010 -0.4706
  508SOL     OW 2943   5.908   4.129   2.007 -0.4620 -0.0643 -0.2004
  508SOL    HW1 2944   5.826   4.136   2.056  0.1750 -0.1586  0.9382
  508SOL    HW2 2945   5.939   4.220   2.000  0.2137 -0.1698  0.9994
  509SOL     OW 2946   4.570   4.164   5.275  0.6727  0.6816 -0.3951
  509SOL    HW1 2947   4.609   4.104   5.339  1.6004  0.3780 -1.2333
  509SOL    HW2 2948   4.480   4.133   5.266  0.6083  0.5562  0.5532
  510SOL     OW 2949   4.537   6.956   5.110  0.2907 -0.3061  0.2822
  510SOL    HW1 2950   4.559   6.990   5.197 -2.8759  0.5096  0.8778
  510SOL    HW2 2951   4.575   7.020   5.049 -0.3746  1.0128  1.2047
  511SOL     OW 2952   1.017   2.096   0.227 -0.2119  0.3393 -0.4014
  511SOL    HW1 2953   0.957   2.021   0.224 -0.7450  0.7768 -1.1335
  511SOL    HW2 2954   1.092   2.065   0.277 -0.7548 -0.4406 -0.0420
  512SOL     OW 2955   1.489   0.006   0.336 -0.6372 -0.2639  0.2596
  512SOL    HW1 2956   1.403  -0.023   0.368 -0.5466  0.5707  1.3050
  512SOL    HW2 2957   1.545  -0.070   0.348 -0.8086 -0.2415  1.3421
  513SOL     OW 2958   2.583   7.163   3.224  0.3891 -0.1757  0.2729
  513SOL    HW1 2959   2.496   7.124   3.220  0.3737 -0.6535  3.1969
  513SOL    HW2 2960   2.570   7.252   3.191 -0.7158 -0.8786 -1.3214
  514SOL     OW 2961   1.214   1.966   0.538 -0.1869 -0.0708 -0.6336
  514SOL    HW1 2962   1.245   1.931   0.622 -0.3668  1.1416 -0.0365
  514SOL    HW2 2963   1.136   1.915   0.518  0.6821 -1.3789 -0.8320
  515SOL     OW 2964   6.237   0.024   3.674 -0.2850 -0.0195 -0.2601
  515SOL    HW1 2965   6.298  -0.031   3.625 -1.8375 -1.7084 -0.4408
  515SOL    HW2 2966   6.208  -0.032   3.746 -3.2678 -0.2081 -1.4367
  516SOL     OW 2967   3.200   3.772   6.919  0.1933 -0.0499  0.6298
  516SOL    HW1 2968   3.291   3.744   6.910  0.7619  2.3421 -4.1163
  516SOL    HW2 2969   3.150   3.702   6.878  0.1301 -0.3257  1.1749
  517SOL     OW 2970   1.040   2.648   7.851 -0.4362  0.0510  0.1627
  517SOL    HW1 2971   1.027   2.565   7.898  1.8963  0.2522  1.2946
  517SOL    HW2 2972   0.969   2.704   7.882  0.7061  0.0165  3.2340
  518SOL     OW 2973   2.991   3.569   2.459  0.1281 -0.0882 -0.0231
  518SOL    HW1 2974   3.058   3.623   2.418 -0.0613 -0.2092 -0.5059
  518SOL    HW2 2975   3.031   3.537   2.540  0.3969  0.4088  0.0430
  519SOL     OW 2976   5.247   5.850   2.936  0.2953 -0.3761  0.8093
  519SOL    HW1 2977   5.243   5.782   3.002  0.5782 -1.2366 -0.0365
  519SOL    HW2 2978   5.279   5.806   2.857 -0.8459  0.4244 -0.1460
  520SOL     OW 2979   2.506   0.126   0.661 -0.7248 -0.3144 -0.0323
  520SOL    HW1 2980   2.590   0.151   0.700 -0.9551 -0.2733  0.4441
  520SOL    HW2 2981   2.496   0.034   0.683 -1.4334  0.0086  1.0945
  521SOL     OW 2982   6.819   1.088   2.116 -0.0135 -0.1360  0.2119
  521SOL    HW1 2983   6.820   0.993   2.100 -1.9187 -0.1929  0.1266
  521SOL    HW2 2984   6.742   1.119   2.068 -0.6300  1.1138  1.8881
  522SOL     OW 2985   6.346   4.765   4.926  0.1043 -0.5304 -0.1204
  522SOL    HW1 2986   6.402   4.790   4.999 -0.7939 -1.3674  0.8876
  522SOL    HW2 2987   6.406   4.750   4.853  1.0039  0.4442  0.3966
  523SOL     OW 2988   5.313   3.121   6.438 -0.1648  0.0680  0.1267
  523SOL    HW1 2989   5.353   3.145   6.522  1.5434 -1.4706 -0.1918
  523SOL    HW2 2990   5.331   3.195   6.380  0.3855  0.2970  0.5836
  524SOL     OW 2991   5.348   0.669   6.141  0.7301  0.0418  0.4042
  524SOL    HW1 2992   5.267   0.618   6.141  1.0011 -0.4649 -1.9380
  524SOL    HW2 2993   5.401   0.630   6.072  2.2963  1.4379  0.7677
  525SOL     OW 2994   7.327   5.531   3.876  0.2239 -0.2972 -0.2623
  525SOL    HW1 2995   7.346   5.476   3.951 -0.0823  0.1826  0.1730
  525SOL    HW2 2996   7.267   5.478   3.823  0.5868 -0.7088 -0.2696
  526SOL     OW 2997   1.978   5.146   6.017 -0.4863 -0.1224  0.0081
  526SOL    HW1 2998   1.922   5.180   5.947  1.1617  1.5431 -0.5595
  526SOL    HW2 2999   1.935   5.064   6.044 -2.6656  0.6092 -1.0172
  527SOL     OW 3000   2.893   7.039   3.559  0.3932 -0.4568 -0.2034
  527SOL    HW1 3001   2.800   7.062   3.550  0.3313 -0.1067  1.0676
  527SOL    HW2 3002   2.933   7.065   3.477 -0.5817 -0.2978 -0.6359
  528SOL     OW 3003   0.427   3.978   7.441  0.8050  0.1431  0.1697
  528SOL    HW1 3004   0.347   4.028   7.427  1.2456  1.0556  0.8124
  528SOL    HW2 3005   0.397   3.893   7.475  0.1351  0.6942  0.9916
  529SOL     OW 3006   2.410   1.535   7.599 -0.3484  0.4410  0.0525
  529SOL    HW1 3007   2.373   1.449   7.579 -1.0802  0.6755  0.3505
  529SOL    HW2 3008   2.471   1.519   7.671 -0.0004  0.0754 -0.3238
  530SOL     OW 3009   3.868   5.185   7.446  0.2358 -0.1058 -0.4132
  530SOL    HW1 3010   3.929   5.234   7.391 -0.0406 -0.1454 -0.7598
  530SOL    HW2 3011   3.843   5.247   7.515  1.2573 -0.3418  0.1813
  531SOL     OW 3012   4.259   2.836   6.404 -0.5108  0.4339  0.3669
  531SOL    HW1 3013   4.245   2.851   6.310 -0.1780  0.4429  0.3168
  531SOL    HW2 3014   4.261   2.924   6.442  0.3845  0.4829  0.2278
  532SOL     OW 3015   0.760   3.930   0.851  0.2858 -0.6793 -0.4178
  532SOL    HW1 3016   0.830   3.891   0.903 -0.6447 -2.0220 -0.1197
  532SOL    HW2 3017   0.682   3.878   0.872 -0.5284 -0.0524 -1.7151
  533SOL     OW 3018   4.926   5.924   2.079 -0.0542 -0.3595 -0.1579
  533SOL    HW1 3019   4.841   5.925   2.123  1.3733 -0.6793  2.8573
  533SOL    HW2 3020   4.948   5.832   2.071 -0.1388 -0.2917 -1.3121
  534SOL     OW 3021   1.476   7.358   3.695  0.2838 -0.4856 -0.2475
  534SOL    HW1 3022   1.395   7.410   3.701 -1.9722 -3.5081 -1.6351
  534SOL    HW2 3023   1.537   7.415   3.649 -1.5175  1.4781 -0.3915
  535SOL     OW 3024   8.023   3.204   2.382 -0.0709  0.2513 -0.4183
  535SOL    HW1 3025   8.034   3.219   2.476 -2.2345  0.5489 -0.1812
  535SOL    HW2 3026   8.086   3.264   2.342  0.0270  1.0124  0.8045
  536SOL     OW 3027   2.154   7.314   5.274 -0.3591 -0.0746 -0.2636
  536SOL    HW1 3028   2.208   7.348   5.204 -1.3589 -0.7399 -1.3918
  536SOL    HW2 3029   2.147   7.386   5.337  1.8506 -0.0010 -0.0421
  537SOL     OW 3030   7.376   6.479   7.366  0.8346 -0.1092 -0.1249
  537SOL    HW1 3031   7.296   6.430   7.347 -0.5188  2.7507 -2.6827
  537SOL    HW2 3032   7.363   6.514   7.454 -1.6262  1.6347 -1.0745
  538SOL     OW 3033   0.402   3.981   7.842  0.0293 -0.2433  0.3044
  538SOL    HW1 3034   0.308   3.999   7.836  0.0510 -0.5401 -1.4838
  538SOL    HW2 3035   0.443   4.040   7.779  0.9193 -0.8858  0.2508
  539SOL     OW 3036   0.375   5.688   0.357  0.2514 -0.5265  0.0653
  539SOL    HW1 3037   0.407   5.614   0.409  0.0511  0.1394  1.1691
  539SOL    HW2 3038   0.280   5.677   0.356  0.2744 -0.7118 -0.4481
  540SOL     OW 3039   6.037   6.322   1.631 -0.0196  0.6744 -0.7458
  540SOL    HW1 3040   5.983   6.254   1.591  0.5831  0.7312 -1.6821
  540SOL    HW2 3041   6.028   6.307   1.726 -0.4365 -0.2755 -0.9230
  541SOL     OW 3042   7.804   5.467   5.346 -0.7543 -0.1498 -0.1298
  541SOL    HW1 3043   7.837   5.449   5.259 -0.9687 -0.6370 -0.1116
  541SOL    HW2 3044   7.758   5.551   5.338 -1.4499 -0.5760 -0.6645
  542SOL     OW 3045   1.655   0.030   3.181 -0.1776  0.7626  0.7862
  542SOL    HW1 3046   1.692  -0.055   3.204 -1.3779 -0.2031 -0.6574
  542SOL    HW2 3047   1.731   0.083   3.157  0.5575 -0.0250  1.2994
  543SOL     OW 3048   7.065   1.444   3.309 -0.0054  0.7673 -0.3829
  543SOL    HW1 3049   6.981   1.489   3.297 -0.4707 -0.4035 -1.8514
  543SOL    HW2 3050   7.129   1.502   3.270 -0.4686  0.6402 -1.3711
  544SOL     OW 3051   0.721   2.764   0.565 -0.3507  0.2657  0.0529
  544SOL    HW1 3052   0.641   2.799   0.525 -0.8457 -1.5005 -0.6199
  544SOL    HW2 3053   0.791   2.789   0.504 -1.1067 -2.4914 -2.2043
  545SOL     OW 3054   3.952   1.382   6.079  0.5987 -0.2311 -0.2192
  545SOL    HW1 3055   3.924   1.302   6.125  1.3144 -0.1470  0.3820
  545SOL    HW2 3056   3.912   1.453   6.128 -3.7144 -0.2110 -3.1802
  546SOL     OW 3057   6.780   0.070   5.685 -0.6191  0.6223  0.7883
  546SOL    HW1 3058   6.742   0.151   5.718 -2.4355 -0.8521  2.5729
  546SOL    HW2 3059   6.712   0.033   5.628  0.4969  0.6620 -0.6465
  547SOL     OW 3060   5.393   5.873   6.907  0.1268 -0.0928  0.1746
  547SOL    HW1 3061   5.385   5.952   6.961 -0.1966  0.2329 -0.3304
  547SOL    HW2 3062   5.482   5.876   6.874  0.1708 -0.0284  0.2972
  548SOL     OW 3063   2.038   5.881   3.876 -0.0270 -0.2216  0.1256
  548SOL    HW1 3064   2.052   5.812   3.811  1.2551 -0.0455  0.1750
  548SOL    HW2 3065   1.998   5.953   3.827  0.1779 -0.3911 -0.2959
  549SOL     OW 3066   4.693   2.409   1.321 -0.0707 -0.5684  0.1519
  549SOL    HW1 3067   4.698   2.353   1.244 -1.1335  1.1472 -1.2199
  549SOL    HW2 3068   4.640   2.359   1.383  0.1030 -1.6249 -0.5124
  550SOL     OW 3069   5.192   4.981   1.129  0.1694  0.1232 -0.6517
  550SOL    HW1 3070   5.242   5.047   1.080  1.3576 -0.5022 -0.3333
  550SOL    HW2 3071   5.157   4.922   1.062 -0.0786  0.5186 -0.8746
  551SOL     OW 3072   7.890   0.490   4.642 -0.2513 -0.0159 -0.7006
  551SOL    HW1 3073   7.900   0.498   4.737 -0.3439 -0.6672 -0.6343
  551SOL    HW2 3074   7.804   0.527   4.624 -0.8485 -1.1825 -0.3476
  552SOL     OW 3075   5.561   7.836   2.920  0.0479  0.0364  0.5269
  552SOL    HW1 3076   5.599   7.901   2.861 -1.1205  0.2128 -0.0809
  552SOL    HW2 3077   5.496   7.790   2.866  1.6097 -2.4311  0.6147
  553SOL     OW 3078   7.684   4.618   1.806 -0.3301  0.5412 -0.3187
  553SOL    HW1 3079   7.619   4.578   1.864  0.0188  0.1134 -0.2212
  553SOL    HW2 3080   7.665   4.712   1.809  0.4283  0.6643  1.4114
  554SOL     OW 3081   4.907   0.163   0.272  0.4122 -0.1609 -0.5891
  554SOL    HW1 3082   4.913   0.258   0.257 -0.7288  0.1103  0.4627
  554SOL    HW2 3083   4.998   0.133   0.274  0.8807  1.2094  0.7539
  555SOL     OW 3084   2.821   2.575   0.473  0.6151  0.1181 -0.0675
  555SOL    HW1 3085   2.915   2.571   0.454  0.7523  0.0679  0.5836
  555SOL    HW2 3086   2.801   2.491   0.515  0.0805 -0.2471 -1.0203
  556SOL     OW 3087   5.777   4.031   0.754 -0.3034 -0.2891  0.2726
  556SOL    HW1 3088   5.784   4.124   0.776 -1.8005 -0.1820  0.4471
  556SOL    HW2 3089   5.729   3.993   0.828 -2.4595 -0.5664 -1.1616
  557SOL     OW 3090   4.659   0.806   0.996 -0.0722  0.1925 -0.4488
  557SOL    HW1 3091   4.722   0.875   1.015 -1.1350  1.4860 -1.4281
  557SOL    HW2 3092   4.694   0.762   0.918 -0.0173  0.4464 -0.5672
  558SOL     OW 3093   4.679   4.785   7.879  0.0821  0.3606 -0.3481
  558SOL    HW1 3094   4.697   4.835   7.959 -1.4863  0.5603 -0.0989
  558SOL    HW2 3095   4.681   4.693   7.907  0.3123  0.3934 -0.2526
  559SOL     OW 3096   0.934   2.572   6.394 -0.9714 -0.3332  0.1980
  559SOL    HW1 3097   0.988   2.554   6.472 -0.6994  0.1550  0.1276
  559SOL    HW2 3098   0.860   2.622   6.428  0.2212  1.7654 -0.1283
  560SOL     OW 3099   2.788   7.686   2.994  0.3693  0.0186  0.0531
  560SOL    HW1 3100   2.865   7.736   3.023 -1.0179  1.2575  1.8530
  560SOL    HW2 3101   2.744   7.662   3.076 -0.8536 -1.1816 -0.9232
  561SOL     OW 3102   7.777   4.295   4.725 -0.2398  0.3444 -0.4323
  561SOL    HW1 3103   7.863   4.279   4.684  1.4762 -0.1905  3.0152
  561SOL    HW2 3104   7.736   4.361   4.669  2.0398  0.0010 -2.6974
  562SOL     OW 3105   7.884   1.265   0.625 -0.3773  0.9178 -0.6370
  562SOL    HW1 3106   7.810   1.264   0.686  0.2401  0.8056  0.1196
  562SOL    HW2 3107   7.928   1.182   0.639 -1.3040  0.0471 -2.5983
  563SOL     OW 3108   6.068   0.732   5.451  0.0553 -0.4152 -0.4960
  563SOL    HW1 3109   6.133   0.801   5.446 -0.9551  0.4897 -2.1315
  563SOL    HW2 3110   6.116   0.655   5.481  1.6257  0.4956 -0.5982
  564SOL     OW 3111   4.450   0.025   2.718 -0.5984  0.1570 -0.2887
  564SOL    HW1 3112   4.518  -0.009   2.777 -0.2767 -2.0134 -1.8134
  564SOL    HW2 3113   4.421   0.106   2.760  1.3225 -0.0308  1.5774
  565SOL     OW 3114   3.848   0.402   7.764  0.5713 -0.6462  0.0017
  565SOL    HW1 3115   3.766   0.440   7.797  0.2129  0.5657 -2.1521
  565SOL    HW2 3116   3.850   0.314   7.803 -3.9066 -2.3969 -2.9778
  566SOL     OW 3117   4.947   3.617   2.279  0.9012  0.4093  0.4631
  566SOL    HW1 3118   4.962   3.526   2.254 -0.5146 -0.2053  1.6706
  566SOL    HW2 3119   4.874   3.646   2.224  1.4176  0.8611  0.0051
  567SOL     OW 3120   5.776   3.790   2.455  0.6075 -0.4266 -0.0105
  567SOL    HW1 3121   5.799   3.758   2.368 -0.3780 -2.7402  0.4967
  567SOL    HW2 3122   5.705   3.732   2.484 -0.1072  1.2128  1.7564
  568SOL     OW 3123   0.223   3.810   3.207 -0.5240 -0.3711 -0.3293
  568SOL    HW1 3124   0.299   3.769   3.250  0.1797  2.4635  1.4540
  568SOL    HW2 3125   0.154   3.807   3.273 -1.1469 -0.5814 -0.9767
  569SOL     OW 3126   6.573   1.080   7.168  0.7751 -0.2253  0.3795
  569SOL    HW1 3127   6.551   1.085   7.075 -0.5004 -0.7216  0.6235
  569SOL    HW2 3128   6.574   1.171   7.198 -1.2919 -0.1572  0.3848
  570SOL     OW 3129   4.038   4.657   6.746 -0.3328 -0.3056  0.2833
  570SOL    HW1 3130   3.946   4.682   6.749 -0.4176 -0.4032 -1.1036
  570SOL    HW2 3131   4.060   4.639   6.837 -2.0584 -1.6703  0.4810
  571SOL     OW 3132   3.728   6.351   1.638  0.5674  0.1503  0.1091
  571SOL    HW1 3133   3.807   6.313   1.676 -0.1760  1.0218  2.8366
  571SOL    HW2 3134   3.724   6.439   1.676 -1.2705  0.4092 -0.5873
  572SOL     OW 3135   4.590   6.814   5.509 -0.2252 -0.1910 -0.0826
  572SOL    HW1 3136   4.589   6.908   5.522  0.7238 -0.0217 -1.0703
  572SOL    HW2 3137   4.533   6.779   5.578 -0.3316  1.0697  0.4883
  573SOL     OW 3138   2.357   0.062   1.953 -0.4975 -0.1365 -0.0279
  573SOL    HW1 3139   2.293   0.076   1.883 -2.1740  1.4894  1.7350
  573SOL    HW2 3140   2.306   0.025   2.025  0.7309  0.3566  1.1242
  574SOL     OW 3141   5.141   6.047   3.991 -0.5175  0.1743  0.5309
  574SOL    HW1 3142   5.070   6.053   4.054  0.4501 -1.2308  1.8192
  574SOL    HW2 3143   5.123   6.117   3.928 -2.2117  0.7939  1.6352
  575SOL     OW 3144   5.607   7.468   4.898  0.0073  0.2255 -0.1983
  575SOL    HW1 3145   5.673   7.404   4.872 -1.4727 -1.3427 -0.2817
  575SOL    HW2 3146   5.573   7.504   4.816  0.5964  0.8864 -0.1610
  576SOL     OW 3147   5.129   4.397   3.702  0.2025 -0.2169  0.3658
  576SOL    HW1 3148   5.047   4.427   3.662 -0.1458 -1.3188  0.2218
  576SOL    HW2 3149   5.197   4.452   3.663 -0.4084  0.3631  0.1024
  577SOL     OW 3150   3.877   4.437   2.984 -0.0606 -0.1796  0.3199
  577SOL    HW1 3151   3.892   4.510   2.924  4.3366 -0.5213  0.7060
  577SOL    HW2 3152   3.866   4.361   2.926 -0.6233  0.1699 -0.0459
  578SOL     OW 3153   3.382   5.146   3.718  0.3580 -0.2433  0.0901
  578SOL    HW1 3154   3.329   5.067   3.727 -1.9343  1.1071 -0.7579
  578SOL    HW2 3155   3.443   5.127   3.647  0.5482 -1.5746  0.5823
  579SOL     OW 3156   2.607   6.800   5.516 -0.5971  0.0391  0.3411
  579SOL    HW1 3157   2.679   6.840   5.467 -0.7490 -1.0497 -0.8430
  579SOL    HW2 3158   2.547   6.872   5.535  0.3246  0.7887  0.4847
  580SOL     OW 3159   2.828   1.542   6.857  0.1607  0.1738 -0.1063
  580SOL    HW1 3160   2.918   1.524   6.829  0.3845  0.9200  0.1165
  580SOL    HW2 3161   2.830   1.633   6.886  0.1152 -0.7391  3.0945
  581SOL     OW 3162   0.716   7.042   0.706  0.2911  0.1628 -0.2053
  581SOL    HW1 3163   0.765   6.962   0.725  0.2120  0.2603  0.4400
  581SOL    HW2 3164   0.711   7.045   0.611 -0.1181 -0.8553 -0.2307
  582SOL     OW 3165   0.204   5.824   5.026  0.4668 -0.2006  0.3987
  582SOL    HW1 3166   0.232   5.799   5.114  0.0540 -0.1084  0.5542
  582SOL    HW2 3167   0.109   5.832   5.031  0.5090  0.5790  0.1394
  583SOL     OW 3168   0.062   0.427   4.413 -0.0631  0.4603 -0.4319
  583SOL    HW1 3169   0.010   0.348   4.397  1.0526 -0.3392 -0.2541
  583SOL    HW2 3170   0.123   0.402   4.483  0.9204  1.1855 -1.0051
  584SOL     OW 3171   4.276   2.252   4.383 -0.7163 -0.2821 -0.3075
  584SOL    HW1 3172   4.257   2.266   4.291 -0.7686  1.1774 -0.0957
  584SOL    HW2 3173   4.237   2.167   4.403 -2.7184  0.4074 -1.0830
  585SOL     OW 3174   7.038   3.025   4.393 -0.5329  0.0277 -0.3170
  585SOL    HW1 3175   7.061   2.938   4.362  2.5420 -0.0571  1.7654
  585SOL    HW2 3176   7.010   3.012   4.483 -0.3207  1.1315 -0.0778
  586SOL     OW 3177   0.783   1.026   6.442  0.4796 -0.1485  0.0527
  586SOL    HW1 3178   0.870   0.990   6.427  0.8673  0.3010  1.1472
  586SOL    HW2 3179   0.725   0.950   6.437  0.9887 -0.5304 -0.1580
  587SOL     OW 3180   3.656   0.074   6.674 -0.0105  0.3546  0.1684
  587SOL    HW1 3181   3.748   0.083   6.652 -0.4987  2.3028 -1.2809
  587SOL    HW2 3182   3.625   0.163   6.689 -1.2830 -0.3878  2.4061
  588SOL     OW 3183   5.487   7.723   8.046  0.2122 -0.4693 -0.7798
  588SOL    HW1 3184   5.508   7.813   8.072  1.7836 -1.1963  0.6504
  588SOL    HW2 3185   5.404   7.704   8.089  1.6690 -0.8926  2.0744
  589SOL     OW 3186   7.048   5.463   7.398  1.0323  0.1630 -0.6358
  589SOL    HW1 3187   7.005   5.380   7.420  0.5071  0.2458 -1.3335
  589SOL    HW2 3188   7.141   5.445   7.408  0.9187 -0.5017 -0.7482
  590SOL     OW 3189   3.003   3.168   5.756  0.2991 -0.3946  0.1746
  590SOL    HW1 3190   3.097   3.171   5.734  0.3693 -0.6086  0.4530
  590SOL    HW2 3191   2.994   3.095   5.816  0.1802  0.4802  1.2485
  591SOL     OW 3192   6.254   2.854   1.566 -0.2201  0.0177 -0.4564
  591SOL    HW1 3193   6.271   2.762   1.547 -0.0918  0.2514 -1.5880
  591SOL    HW2 3194   6.340   2.895   1.568 -0.2321  0.0151  0.6869
  592SOL     OW 3195   0.002   6.633   1.050  0.1222 -0.0503 -0.3789
  592SOL    HW1 3196  -0.058   6.559   1.058  1.0710 -0.7359  0.7978
  592SOL    HW2 3197   0.010   6.667   1.139  1.0632  0.3336 -0.5958
  593SOL     OW 3198   5.766   5.726   3.167  0.4350 -0.1811  0.4145
  593SOL    HW1 3199   5.715   5.723   3.249 -1.1186  4.0919 -0.1341
  593SOL    HW2 3200   5.734   5.651   3.117 -1.5394 -0.6297  2.1647
  594SOL     OW 3201   0.577   2.161   7.565 -0.2701 -0.2095  0.2036
  594SOL    HW1 3202   0.515   2.138   7.635 -1.2299  1.2622 -0.1230
  594SOL    HW2 3203   0.614   2.077   7.538  0.0089 -0.8498  2.3467
  595SOL     OW 3204   7.827   4.267   1.952  0.0380 -0.0814  0.1358
  595SOL    HW1 3205   7.763   4.287   1.883  1.0520 -1.4504 -1.2981
  595SOL    HW2 3206   7.790   4.304   2.031 -1.1391  1.6901 -1.1659
  596SOL     OW 3207   5.033   4.105   0.532  0.3811 -0.2367 -0.0417
  596SOL    HW1 3208   5.026   4.151   0.448 -1.2158  0.5879  0.5089
  596SOL    HW2 3209   5.096   4.157   0.583  0.4183 -0.0434 -0.2865
  597SOL     OW 3210   3.772   6.908   7.011  0.0131 -0.2698  0.2145
  597SOL    HW1 3211   3.867   6.910   7.023  0.0524  1.1759 -0.1650
  597SOL    HW2 3212   3.737   6.948   7.091 -0.1125  1.6440 -0.7294
  598SOL     OW 3213   3.826   7.840   7.259 -0.0028 -0.1916  0.2412
  598SOL    HW1 3214   3.812   7.768   7.321 -1.8419  0.4336  0.6374
  598SOL    HW2 3215   3.819   7.799   7.173  0.5770 -0.7435  0.4491
  599SOL     OW 3216   3.311   7.806   2.397 -0.8894 -0.0867 -0.2798
  599SOL    HW1 3217   3.370   7.743   2.438 -0.3213  1.4816  1.4677
  599SOL    HW2 3218   3.261   7.842   2.469 -2.3754  0.2963 -1.4543
  600SOL     OW 3219   0.624   4.662   6.352 -0.3033  1.0399 -0.3471
  600SOL    HW1 3220   0.654   4.726   6.417  1.8609  1.1445 -1.3677
  600SOL    HW2 3221   0.670   4.581   6.375 -0.4666  0.7521 -1.0058
  601SOL     OW 3222   3.240   0.808   1.430 -0.1040 -0.1758  0.4052
  601SOL    HW1 3223   3.204   0.818   1.342 -1.2157  1.3210  0.9833
  601SOL    HW2 3224   3.333   0.830   1.419 -0.2374  0.0617 -0.3873
  602SOL     OW 3225   2.994   4.964   2.702  0.0311  0.4602  0.0272
  602SOL    HW1 3226   3.036   5.049   2.720  0.5783 -0.0926  1.5520
  602SOL    HW2 3227   2.940   4.980   2.625  2.5099  1.3890 -1.6557
  603SOL     OW 3228   7.246   7.881   5.451 -0.1430  0.2863 -0.2218
  603SOL    HW1 3229   7.162   7.920   5.472  0.1342  2.1153 -2.2069
  603SOL    HW2 3230   7.311   7.942   5.486  0.4532 -1.4666  1.9537
  604SOL     OW 3231   6.993   4.512   0.020 -0.2786 -0.1209  0.1390
  604SOL    HW1 3232   7.076   4.509   0.068  1.0065  0.3940 -1.9192
  604SOL    HW2 3233   6.957   4.423   0.028 -0.3338  0.0334  2.2846
  605SOL     OW 3234   0.416   3.561   0.051  0.6811 -0.1717 -0.4103
  605SOL    HW1 3235   0.491   3.584   0.105 -0.4768 -0.4896  1.4003
  605SOL    HW2 3236   0.365   3.500   0.104 -0.4924 -0.5266 -1.8785
  606SOL     OW 3237   7.254   7.869   2.576 -0.3112  0.1709 -0.1949
  606SOL    HW1 3238   7.234   7.840   2.487 -0.1826  0.1666 -0.2239
  606SOL    HW2 3239   7.186   7.831   2.630  0.5847 -1.2939 -0.0358
  607SOL     OW 3240   5.379   6.801   6.762 -0.1400  0.4661 -0.0146
  607SOL    HW1 3241   5.417   6.889   6.752 -0.7390  0.7509  0.1624
  607SOL    HW2 3242   5.426   6.747   6.699  1.3657  0.5427  0.9957
  608SOL     OW 3243   0.186   6.869   1.793 -0.2044  0.0824  0.6449
  608SOL    HW1 3244   0.115   6.852   1.731  1.0627  2.4574 -1.6928
  608SOL    HW2 3245   0.255   6.808   1.768  0.4529  1.3025 -0.6629
  609SOL     OW 3246   6.303   3.131   7.568  0.2291  0.3274 -0.2182
  609SOL    HW1 3247   6.278   3.221   7.547  0.8029  0.8104  1.0657
  609SOL    HW2 3248   6.223   3.080   7.553  0.0749  0.9178 -1.5932
  610SOL     OW 3249   5.427   2.792   0.515  0.2659  0.0723  0.0467
  610SOL    HW1 3250   5.500   2.825   0.464  1.1535  1.7384  2.2515
  610SOL    HW2 3251   5.445   2.698   0.524  0.4325 -0.1431 -1.9941
  611SOL     OW 3252   4.769   2.328   0.877  0.0511 -0.5246 -0.3385
  611SOL    HW1 3253   4.847   2.275   0.868  0.0602 -0.4005 -1.0690
  611SOL    HW2 3254   4.728   2.298   0.958  2.0303  0.9570  1.3048
  612SOL     OW 3255   3.683   4.168   7.321 -0.4977  0.4144 -0.2553
  612SOL    HW1 3256   3.777   4.186   7.309  0.0615 -0.3393  2.2519
  612SOL    HW2 3257   3.659   4.116   7.245  0.9699  1.1059 -1.2435
  613SOL     OW 3258   5.677   6.031   1.419 -0.2221  0.2999 -0.5224
  613SOL    HW1 3259   5.597   6.047   1.369 -1.0797 -2.3473 -0.1419
  613SOL    HW2 3260   5.647   6.007   1.507  1.0511  0.4757 -0.0134
  614SOL     OW 3261   5.204   4.729   7.619 -0.1274 -0.5263  0.0968
  614SOL    HW1 3262   5.152   4.654   7.648  1.3781 -1.1507  1.2892
  614SOL    HW2 3263   5.168   4.803   7.668 -0.8927 -0.6436 -0.2637
  615SOL     OW 3264   2.739   4.478   1.692  0.3083  0.7345 -0.0958
  615SOL    HW1 3265   2.729   4.568   1.662  3.6224  0.9102 -1.0611
  615SOL    HW2 3266   2.795   4.436   1.627  0.5437 -1.4376  1.3784
  616SOL     OW 3267   5.910   5.653   3.632 -0.8062 -0.4331 -0.8011
  616SOL    HW1 3268   5.932   5.743   3.654 -1.9054 -0.0621 -1.1126
  616SOL    HW2 3269   5.827   5.637   3.677  0.2046 -1.8751  0.6213
  617SOL     OW 3270   2.701   0.582   1.433 -0.0795  0.1567 -0.2209
  617SOL    HW1 3271   2.788   0.622   1.439  0.4112 -0.6168 -1.7429
  617SOL    HW2 3272   2.717   0.496   1.394 -1.4067 -0.4855  0.5887
  618SOL     OW 3273   6.652   7.459   4.069 -0.1106 -0.2679  0.5410
  618SOL    HW1 3274   6.592   7.385   4.057  0.3296 -1.3373  3.7618
  618SOL    HW2 3275   6.597   7.530   4.102 -0.5024  0.9148 -2.3842
  619SOL     OW 3276   5.345   3.847   5.239  0.0932 -0.1360  0.4607
  619SOL    HW1 3277   5.268   3.792   5.249 -0.8086  1.1048  0.6010
  619SOL    HW2 3278   5.410   3.809   5.298 -0.8851 -0.3718  1.4210
  620SOL     OW 3279   7.479   1.627   4.347 -0.0075  0.3621  0.0639
  620SOL    HW1 3280   7.444   1.583   4.270 -0.5147 -0.1729  0.5843
  620SOL    HW2 3281   7.562   1.582   4.366 -0.2089  0.0475  0.2141
  621SOL     OW 3282   4.096   2.715   5.573  0.2690  0.0658 -0.2318
  621SOL    HW1 3283   4.035   2.641   5.583 -0.5583  0.8366  0.6624
  621SOL    HW2 3284   4.041   2.787   5.541  0.9117  0.5140 -0.3400
  622SOL     OW 3285   1.869   1.580   7.006  0.0017 -0.4751 -0.2577
  622SOL    HW1 3286   1.897   1.659   7.052  1.8153 -1.2216 -0.0119
  622SOL    HW2 3287   1.820   1.530   7.071 -1.3669  0.4964 -0.4786
  623SOL     OW 3288   7.576   3.235   5.528  0.1002  0.0223  0.6997
  623SOL    HW1 3289   7.583   3.326   5.500 -0.5840  0.2787  1.3314
  623SOL    HW2 3290   7.554   3.241   5.621 -2.4013 -0.7608  0.2140
  624SOL     OW 3291   7.690   0.730   0.764  0.5112  0.1026  0.2051
  624SOL    HW1 3292   7.624   0.662   0.755  0.7437  0.1292 -2.5002
  624SOL    HW2 3293   7.683   0.781   0.684  1.6339  2.1286  1.3089
  625SOL     OW 3294   6.499   6.818   7.803 -0.3183  0.2912  0.3368
  625SOL    HW1 3295   6.582   6.833   7.757 -0.1444  2.5130  1.2320
  625SOL    HW2 3296   6.524   6.781   7.888 -0.2542  0.6524  0.4778
  626SOL     OW 3297   1.228   0.233   6.690  0.0933  0.6871 -0.1857
  626SOL    HW1 3298   1.267   0.303   6.743 -0.0087  0.0339  0.7953
  626SOL    HW2 3299   1.248   0.153   6.739 -1.5160  0.2313 -0.2080
  627SOL     OW 3300   2.663   3.684   2.018  0.2394 -0.4722  0.9633
  627SOL    HW1 3301   2.736   3.721   2.068  1.2142  0.7677 -1.2468
  627SOL    HW2 3302   2.705   3.643   1.943 -1.3379  1.8697 -1.3618
  628SOL     OW 3303   6.855   3.513   0.737 -0.5889 -0.3073  0.1875
  628SOL    HW1 3304   6.768   3.493   0.772 -0.0423 -0.6479  1.4403
  628SOL    HW2 3305   6.842   3.523   0.643 -1.7734 -1.5511  0.1900
  629SOL     OW 3306   7.745   7.102   5.606 -0.2508 -0.1598 -0.1178
  629SOL    HW1 3307   7.737   7.092   5.701 -0.7950 -1.1129 -0.2561
  629SOL    HW2 3308   7.658   7.079   5.572 -0.2252  0.7283 -0.8097
  630SOL     OW 3309   1.734   5.625   1.562 -0.3528 -0.2292 -0.1526
  630SOL    HW1 3310   1.705   5.716   1.552 -1.3426 -0.6087 -0.8648
  630SOL    HW2 3311   1.693   5.596   1.643  0.6953  0.2161  0.5611
  631SOL     OW 3312   0.363   1.639   7.800  0.0170 -0.3274 -0.2187
  631SOL    HW1 3313   0.410   1.651   7.717 -0.5575  0.4689 -0.4392
  631SOL    HW2 3314   0.358   1.727   7.838 -0.3412 -0.5789  0.3255
  632SOL     OW 3315   4.638   1.419   6.849  0.2192 -0.2984 -0.3683
  632SOL    HW1 3316   4.585   1.449   6.923  0.9171 -3.2510  1.4658
  632SOL    HW2 3317   4.724   1.460   6.863 -0.2969  1.0907 -0.9963
  633SOL     OW 3318   0.676   0.106   7.219 -0.2512 -0.2247  0.6174
  633SOL    HW1 3319   0.678   0.089   7.313  0.5933 -0.1256  0.6221
  633SOL    HW2 3320   0.641   0.025   7.181  1.6819 -1.2264  0.8283
  634SOL     OW 3321   7.330   2.453   1.230  0.0445 -0.2307  0.5611
  634SOL    HW1 3322   7.281   2.427   1.307 -0.4572  0.5528  0.5273
  634SOL    HW2 3323   7.421   2.455   1.258 -0.0476 -0.7464  0.8997
  635SOL     OW 3324   4.287   7.106   3.720 -0.1834 -0.3393  0.4443
  635SOL    HW1 3325   4.236   7.057   3.784  1.0061  1.0525  2.5600
  635SOL    HW2 3326   4.317   7.183   3.767  1.0209  0.6090 -1.7286
  636SOL     OW 3327   7.302   5.490   2.489  0.1064 -0.5080  0.3984
  636SOL    HW1 3328   7.277   5.582   2.500 -1.1116 -0.7105 -0.4447
  636SOL    HW2 3329   7.291   5.473   2.395  1.4841 -1.1979  0.3399
  637SOL     OW 3330   2.531   1.633   3.351  0.0425 -0.0867 -0.0239
  637SOL    HW1 3331   2.617   1.603   3.379 -1.1968 -2.1507  1.9182
  637SOL    HW2 3332   2.511   1.706   3.410  0.6949  0.8771 -0.9515
  638SOL     OW 3333   3.489   5.896   3.127  0.2382  0.4127 -0.1271
  638SOL    HW1 3334   3.404   5.938   3.138  0.6609  1.3792 -0.4048
  638SOL    HW2 3335   3.500   5.842   3.204 -1.8883 -2.0331 -1.3857
  639SOL     OW 3336   5.374   0.712   1.035 -0.0762  0.0276  0.1221
  639SOL    HW1 3337   5.418   0.764   1.103 -0.5097 -0.7480  1.0234
  639SOL    HW2 3338   5.300   0.672   1.080 -0.1084 -0.8753 -0.7017
  640SOL     OW 3339   1.218   3.611   1.689 -0.0107 -0.5976  0.0425
  640SOL    HW1 3340   1.284   3.542   1.692 -0.9959 -1.6184 -1.0167
  640SOL    HW2 3341   1.155   3.587   1.757  1.0479  0.8034  1.6122
  641SOL     OW 3342   3.752   0.098   3.250 -0.0790  0.1993 -0.3671
  641SOL    HW1 3343   3.729   0.020   3.199 -0.1242 -0.0534  0.0280
  641SOL    HW2 3344   3.763   0.065   3.339  0.3700  0.5693 -0.2827
  642SOL     OW 3345   7.589   0.824   4.295  0.2757 -0.2550  0.2264
  642SOL    HW1 3346   7.501   0.799   4.323 -0.1380  0.5430 -0.3240
  642SOL    HW2 3347   7.634   0.740   4.282 -0.8248 -0.7279 -0.7887
  643SOL     OW 3348   4.523   0.373   5.909 -0.3293  0.5915  0.1266
  643SOL    HW1 3349   4.592   0.307   5.907 -0.9810 -0.1027 -1.1740
  643SOL    HW2 3350   4.460   0.340   5.973  0.2998  0.9832  0.9596
  644SOL     OW 3351   5.626   3.253   7.578  1.0941  0.3894  0.1997
  644SOL    HW1 3352   5.541   3.293   7.556  1.3267 -0.2094 -1.9910
  644SOL    HW2 3353   5.670   3.319   7.632 -0.7759  0.6663  1.5095
  645SOL     OW 3354   0.988   2.173   2.689 -0.3494  0.4218 -0.2110
  645SOL    HW1 3355   0.975   2.085   2.724 -1.3064  0.7598  0.3243
  645SOL    HW2 3356   0.931   2.228   2.743  0.6375  1.4477 -0.2041
  646SOL     OW 3357   1.474   2.525   3.442 -0.3748  0.2529  0.1107
  646SOL    HW1 3358   1.512   2.567   3.365 -1.9277  0.7610 -0.4327
  646SOL    HW2 3359   1.402   2.472   3.407  0.1490 -1.1402  1.0265
  647SOL     OW 3360   4.475   0.619   0.891  0.6227 -0.1176 -0.0925
  647SOL    HW1 3361   4.518   0.687   0.943  0.1667 -0.2153  0.4146
  647SOL    HW2 3362   4.387   0.611   0.929 -0.3695  1.0617 -1.9687
  648SOL     OW 3363   6.417   5.928   1.413 -0.2057 -0.0484 -0.2797
  648SOL    HW1 3364   6.488   5.986   1.441 -0.2706  1.6753 -3.1929
  648SOL    HW2 3365   6.459   5.843   1.400  1.0535  0.5977 -0.6358
  649SOL     OW 3366   4.149   7.192   3.243  0.7548 -0.2802  0.3883
  649SOL    HW1 3367   4.140   7.283   3.212  0.7474 -0.7007 -0.9043
  649SOL    HW2 3368   4.153   7.140   3.163 -1.4199 -1.6402  1.0783
  650SOL     OW 3369   6.486   7.233   5.539  0.2504  0.0501  0.2181
  650SOL    HW1 3370   6.578   7.223   5.564  0.5954 -1.3793 -1.4680
  650SOL    HW2 3371   6.437   7.205   5.617  1.2910 -3.2491 -0.1499
  651SOL     OW 3372   6.227   4.166   7.824 -0.1697  0.1987  0.2255
  651SOL    HW1 3373   6.189   4.232   7.765  1.8283  1.1034 -0.1308
  651SOL    HW2 3374   6.249   4.214   7.903 -0.6618 -0.5234  0.8106
  652SOL     OW 3375   6.243   4.849   1.980 -0.5715 -0.1255  0.4852
  652SOL    HW1 3376   6.206   4.847   1.892 -0.2422  1.0265  0.3042
  652SOL    HW2 3377   6.297   4.770   1.985  0.0185  0.1870 -0.6360
  653SOL     OW 3378   4.366   2.728   5.220  0.3781 -0.2368  0.4913
  653SOL    HW1 3379   4.369   2.646   5.270 -1.6082  1.6149  4.1135
  653SOL    HW2 3380   4.445   2.775   5.248  0.7388 -0.2992 -0.4045
  654SOL     OW 3381   2.272   0.613   0.998 -0.2924  0.1688  0.0016
  654SOL    HW1 3382   2.192   0.564   0.979 -0.0861 -0.6012  1.0267
  654SOL    HW2 3383   2.294   0.656   0.915 -1.4185 -0.1014 -0.4606
  655SOL     OW 3384   7.257   8.022   1.757 -0.5446  0.4299 -0.6081
  655SOL    HW1 3385   7.351   8.007   1.768 -0.1458  1.6284 -2.0371
  655SOL    HW2 3386   7.242   8.109   1.795 -0.8422  0.7216 -1.3696
  656SOL     OW 3387   1.482   6.351   3.794  0.4623  0.2125  0.1389
  656SOL    HW1 3388   1.402   6.354   3.846  0.5900  0.6129  0.3081
  656SOL    HW2 3389   1.452   6.358   3.703  0.3984  1.6509  0.2612
  657SOL     OW 3390   3.298   0.134   6.894  0.2231 -0.1988 -0.0451
  657SOL    HW1 3391   3.346   0.143   6.977  1.0833  1.5192 -0.6825
  657SOL    HW2 3392   3.332   0.203   6.839 -1.5977 -0.1843 -1.2495
  658SOL     OW 3393   5.373   6.481   5.574 -0.0121 -0.5001 -0.1368
  658SOL    HW1 3394   5.404   6.416   5.637  0.5561  1.2362  1.4651
  658SOL    HW2 3395   5.278   6.472   5.575 -0.2533  1.0733  2.9137
  659SOL     OW 3396   3.483   1.715   5.741  0.4210  0.2648 -0.1247
  659SOL    HW1 3397   3.544   1.680   5.805  0.8771 -0.4077 -0.9133
  659SOL    HW2 3398   3.485   1.810   5.756 -0.1527  0.0609  1.4317
  660SOL     OW 3399   1.057   4.428   4.259  0.1800  0.3029 -0.0336
  660SOL    HW1 3400   1.059   4.480   4.339  0.8885  0.2802 -0.0306
  660SOL    HW2 3401   1.138   4.451   4.213 -0.2023  0.2951 -0.7327
  661SOL     OW 3402   8.004   2.897   1.695  0.2977 -0.5187  0.0315
  661SOL    HW1 3403   7.917   2.932   1.672 -0.5824 -0.9551  2.3798
  661SOL    HW2 3404   7.986   2.829   1.760  2.3804 -1.1705  0.0029
  662SOL     OW 3405   0.097   1.884   7.593 -0.3163  0.3420  0.0708
  662SOL    HW1 3406   0.032   1.939   7.637 -0.1658  0.3308  0.3129
  662SOL    HW2 3407   0.150   1.848   7.665 -0.1421  0.2279 -0.1142
  663SOL     OW 3408   6.409   4.175   5.911  0.1261 -0.1058  0.1851
  663SOL    HW1 3409   6.379   4.265   5.899 -0.7752 -0.0577  2.2407
  663SOL    HW2 3410   6.329   4.126   5.932  0.8311 -0.9999  0.8606
  664SOL     OW 3411   0.529   2.222   1.805  0.5892 -0.3879  0.2326
  664SOL    HW1 3412   0.556   2.294   1.748  1.0252 -1.3808 -0.8579
  664SOL    HW2 3413   0.469   2.261   1.868 -0.6281  0.5769 -1.4762
  665SOL     OW 3414   2.620   2.544   1.086  0.5047 -0.4176  0.0605
  665SOL    HW1 3415   2.565   2.466   1.095  0.3267 -0.2837  0.1230
  665SOL    HW2 3416   2.622   2.561   0.992  0.5794 -0.5227  0.0425
  666SOL     OW 3417   0.199   4.920   4.716 -0.2286  0.6775 -0.5380
  666SOL    HW1 3418   0.268   4.930   4.783 -1.0671  1.2302  0.2656
  666SOL    HW2 3419   0.152   4.841   4.743  0.8018 -0.3959 -1.7650
  667SOL     OW 3420   5.684   4.284   2.753  0.5597 -0.2017  0.3266
  667SOL    HW1 3421   5.639   4.259   2.673 -0.5577 -0.1848  0.9387
  667SOL    HW2 3422   5.615   4.299   2.817  1.3281  1.8157  0.7405
  668SOL     OW 3423   6.003   5.558   6.734 -0.6729  0.6422  0.3869
  668SOL    HW1 3424   5.918   5.515   6.740  0.1753 -0.9260  4.0531
  668SOL    HW2 3425   6.061   5.490   6.699 -0.3788  0.7178  0.7267
  669SOL     OW 3426   6.032   1.892   3.864  0.3316  0.1691 -0.3111
  669SOL    HW1 3427   6.076   1.952   3.924  0.0688 -1.2633  1.4081
  669SOL    HW2 3428   6.103   1.843   3.822  0.5076 -0.8577  1.0892
  670SOL     OW 3429   5.945   1.549   4.309  0.0207  0.0715 -0.2397
  670SOL    HW1 3430   5.991   1.496   4.374 -0.7555  1.4335  1.5021
  670SOL    HW2 3431   5.858   1.510   4.304 -0.3544  0.7543  0.5925
  671SOL     OW 3432   7.208   3.943   7.566 -0.2373 -0.2912  0.1122
  671SOL    HW1 3433   7.298   3.926   7.594  0.4339 -0.2117 -1.8477
  671SOL    HW2 3434   7.217   3.974   7.476 -2.1849  0.5465  0.1726
  672SOL     OW 3435   2.602   1.478   1.452 -0.0447  0.2981 -0.3917
  672SOL    HW1 3436   2.643   1.430   1.381 -0.7276  0.4695 -0.9082
  672SOL    HW2 3437   2.664   1.472   1.525 -0.1850 -1.4815 -0.3931
  673SOL     OW 3438   5.539   0.387   1.160  0.7048 -0.2669  0.6760
  673SOL    HW1 3439   5.450   0.397   1.126  0.6708  1.0728  1.1007
  673SOL    HW2 3440   5.539   0.300   1.201 -0.6320 -0.0261  1.2705
  674SOL     OW 3441   3.356   5.683   2.417  0.5258  0.0567 -0.1736
  674SOL    HW1 3442   3.297   5.758   2.407  0.2320 -0.1930 -0.3077
  674SOL    HW2 3443   3.389   5.691   2.507  0.4914  0.3421 -0.1838
  675SOL     OW 3444   5.473   4.987   6.655 -0.7839 -0.5047 -0.9043
  675SOL    HW1 3445   5.518   4.911   6.620 -2.3156 -0.8893 -2.1623
  675SOL    HW2 3446   5.380   4.969   6.639 -1.4207  0.2987  1.4510
  676SOL     OW 3447   0.092   5.640   2.765  0.3433 -0.2907 -0.3042
  676SOL    HW1 3448   0.013   5.694   2.759  0.2186 -0.4173  0.1744
  676SOL    HW2 3449   0.150   5.675   2.697 -0.2644 -0.4433 -0.9149
  677SOL     OW 3450   3.411   7.979   5.371 -0.1124 -0.2118  0.0543
  677SOL    HW1 3451   3.426   7.949   5.281 -0.7122 -0.3071 -0.0183
  677SOL    HW2 3452   3.466   8.057   5.380  0.6716 -0.7426 -0.0866
  678SOL     OW 3453   0.417   7.342   0.338 -0.3584 -0.1147 -0.1316
  678SOL    HW1 3454   0.513   7.346   0.338 -0.3459 -0.3244  0.1716
  678SOL    HW2 3455   0.389   7.424   0.298 -0.0580  0.2202  0.3283
  679SOL     OW 3456   5.404   7.550   3.121 -0.2198 -0.1159 -0.6412
  679SOL    HW1 3457   5.491   7.589   3.133  0.5489 -2.3455  2.3149
  679SOL    HW2 3458   5.344   7.625   3.122  1.5122  1.3587 -0.7017
  680SOL     OW 3459   4.142   6.969   0.611 -0.2715 -0.4438 -0.2201
  680SOL    HW1 3460   4.236   6.968   0.589 -0.1394  0.2035  0.2840
  680SOL    HW2 3461   4.106   7.038   0.556 -0.6040 -1.1983 -0.9676
  681SOL     OW 3462   6.662   0.319   7.415 -0.5111  0.1725  0.0879
  681SOL    HW1 3463   6.639   0.239   7.462  0.7157  0.3428  1.0359
  681SOL    HW2 3464   6.704   0.289   7.335 -0.9802 -0.1263 -0.0472
  682SOL     OW 3465   7.737   1.901   6.536  0.4048 -0.0225 -0.0047
  682SOL    HW1 3466   7.740   1.807   6.555  0.3468 -0.0310 -0.0384
  682SOL    HW2 3467   7.647   1.917   6.509  0.3981  0.0546  0.0619
  683SOL     OW 3468   2.322   4.420   0.833 -0.7772  0.5897  0.2538
  683SOL    HW1 3469   2.262   4.485   0.870 -1.9186 -0.6754  0.7301
  683SOL    HW2 3470   2.268   4.342   0.821  0.6609 -0.4367  0.1638
  684SOL     OW 3471   7.764   1.835   1.172 -0.2013  0.2195 -0.2838
  684SOL    HW1 3472   7.844   1.784   1.161  0.6217  1.4482 -0.1181
  684SOL    HW2 3473   7.775   1.911   1.116 -0.5088  1.2509  1.0065
  685SOL     OW 3474   3.603   7.879   6.598  0.0651 -0.5042  0.2375
  685SOL    HW1 3475   3.638   7.887   6.509  1.2743  0.8644  0.7989
  685SOL    HW2 3476   3.620   7.964   6.639 -0.2274 -1.1919  1.8751
  686SOL     OW 3477   2.166   1.964   3.139 -0.6238 -0.0422  0.1013
  686SOL    HW1 3478   2.178   1.914   3.058 -0.1631 -0.0556  0.1763
  686SOL    HW2 3479   2.102   2.031   3.116 -0.6859 -0.2017 -0.2056
  687SOL     OW 3480   5.926   6.694   7.146 -0.6030 -0.3136 -0.1715
  687SOL    HW1 3481   5.847   6.720   7.099  0.8836 -0.0474 -2.7597
  687SOL    HW2 3482   5.921   6.599   7.151 -1.3841 -0.2537  0.2592
  688SOL     OW 3483   4.913   6.535   4.607  0.6599  0.1301  0.0669
  688SOL    HW1 3484   5.005   6.561   4.612  0.6010  0.2122  0.9359
  688SOL    HW2 3485   4.912   6.446   4.642  0.5288 -0.2047 -0.7677
  689SOL     OW 3486   0.733   1.935   8.011  0.8892  0.5093 -0.0183
  689SOL    HW1 3487   0.658   1.880   7.987  1.1383  0.0557  0.2265
  689SOL    HW2 3488   0.694   2.014   8.048  0.5275  0.3130  0.0249
  690SOL     OW 3489   7.974   1.482   0.156  0.6489 -0.3538 -0.2786
  690SOL    HW1 3490   7.973   1.426   0.078 -1.9244 -0.5757 -0.1834
  690SOL    HW2 3491   8.011   1.428   0.225  0.0910 -1.2431 -0.6661
  691SOL     OW 3492   1.648   7.041   3.014 -0.0079 -0.1569 -0.0332
  691SOL    HW1 3493   1.619   7.127   3.045  0.8194 -0.0114  0.3586
  691SOL    HW2 3494   1.571   7.004   2.970 -0.1562  1.0959 -0.8722
  692SOL     OW 3495   3.074   1.894   2.071 -0.0301 -0.2637 -0.1706
  692SOL    HW1 3496   3.142   1.846   2.023  0.8214 -0.4126  1.1239
  692SOL    HW2 3497   3.044   1.831   2.137 -2.5672 -0.7517 -1.6717
  693SOL     OW 3498   1.333   4.505   4.130  0.2730 -0.2799 -0.4139
  693SOL    HW1 3499   1.405   4.493   4.193  0.4153  1.0215 -0.2995
  693SOL    HW2 3500   1.374   4.550   4.056  0.1112 -1.8326 -1.4676
  694SOL     OW 3501   7.977   4.360   3.492 -0.1804 -0.3252 -0.1263
  694SOL    HW1 3502   7.976   4.413   3.572  1.3661  1.2921 -1.0974
  694SOL    HW2 3503   8.070   4.343   3.477 -0.5176 -1.3857 -1.0976
  695SOL     OW 3504   1.605   7.833   0.348  0.1594 -0.1801  0.2384
  695SOL    HW1 3505   1.639   7.844   0.437 -0.1037  1.0189  0.2079
  695SOL    HW2 3506   1.649   7.754   0.316  1.6110  0.3507  0.8022
  696SOL     OW 3507   5.596   1.023   4.322  0.2600  0.4213  0.2834
  696SOL    HW1 3508   5.655   1.076   4.268  0.9155 -0.0589  0.5116
  696SOL    HW2 3509   5.577   1.079   4.397 -0.0210  0.7887 -0.0531
  697SOL     OW 3510   7.808   0.803   2.573  0.6853 -0.3742 -0.3032
  697SOL    HW1 3511   7.801   0.799   2.478  0.3158  0.4530 -0.3220
  697SOL    HW2 3512   7.721   0.777   2.604 -0.2603  2.4958 -0.3091
  698SOL     OW 3513   7.489   0.451   2.909 -0.1919 -0.1003 -0.1651
  698SOL    HW1 3514   7.566   0.409   2.870 -0.9909 -0.1808 -1.7387
  698SOL    HW2 3515   7.432   0.378   2.934 -0.3193 -0.0147 -0.2040
  699SOL     OW 3516   1.876   4.105   6.968  0.5271  0.2326  0.0608
  699SOL    HW1 3517   1.823   4.066   7.037  0.6273  0.2871  0.1696
  699SOL    HW2 3518   1.961   4.123   7.010  0.7711 -0.2472 -0.2253
  700SOL     OW 3519   5.708   4.090   1.454 -0.4148 -0.2243  0.1190
  700SOL    HW1 3520   5.763   4.097   1.375 -0.5307  0.7816  0.1048
  700SOL    HW2 3521   5.728   4.170   1.503 -0.8276 -0.5335  0.7990
  701SOL     OW 3522   4.472   0.276   0.542 -0.8992 -0.0360 -0.2600
  701SOL    HW1 3523   4.484   0.203   0.481 -0.3547 -0.9164  0.8670
  701SOL    HW2 3524   4.396   0.251   0.595 -2.5696  1.5826 -1.7304
  702SOL     OW 3525   6.865   7.066   3.534 -0.1313 -0.0234  0.6251
  702SOL    HW1 3526   6.946   7.069   3.585 -1.1958  2.4685  2.3918
  702SOL    HW2 3527   6.828   6.980   3.554  2.0827 -1.2819 -0.3596
  703SOL     OW 3528   5.943   1.238   5.726  0.3822 -0.0625  0.0063
  703SOL    HW1 3529   5.965   1.149   5.698  0.3894 -0.1613  0.3231
  703SOL    HW2 3530   5.874   1.226   5.791 -0.7346  0.2504 -1.0898
  704SOL     OW 3531   7.294   1.878   7.192 -0.0119  0.1426 -0.0047
  704SOL    HW1 3532   7.316   1.926   7.273  2.1248  0.4251 -0.6910
  704SOL    HW2 3533   7.370   1.890   7.136 -0.6701 -1.6152 -1.3625
  705SOL     OW 3534   6.766   4.367   4.198 -0.1097  0.3034 -0.0671
  705SOL    HW1 3535   6.709   4.331   4.266 -1.4172 -1.3267 -1.9260
  705SOL    HW2 3536   6.712   4.429   4.150  0.6843  1.1440  0.0854
  706SOL     OW 3537   0.585   5.153   6.964  0.1008  0.2257  0.3512
  706SOL    HW1 3538   0.630   5.231   6.930  3.9208 -1.5324  0.8025
  706SOL    HW2 3539   0.653   5.107   7.013 -2.0788 -3.2249  0.3964
  707SOL     OW 3540   4.153   3.412   3.473 -0.2393  0.1085 -0.0007
  707SOL    HW1 3541   4.084   3.373   3.526 -0.7780  1.1695  0.0882
  707SOL    HW2 3542   4.174   3.344   3.408 -0.1781 -0.8691  1.0043
  708SOL     OW 3543   4.763   1.953   0.603 -0.5076  0.1310  0.6229
  708SOL    HW1 3544   4.766   1.999   0.687 -0.2904 -0.1465  0.7688
  708SOL    HW2 3545   4.848   1.911   0.595 -0.0135  1.2824 -0.3910
  709SOL     OW 3546   7.036   6.556   1.367  0.2646 -0.3779 -0.6294
  709SOL    HW1 3547   7.128   6.533   1.383  0.3290  0.4583  0.2765
  709SOL    HW2 3548   6.993   6.472   1.353  1.1150 -0.8037 -0.7986
  710SOL     OW 3549   6.628   2.131   2.146  0.0016 -0.3529  0.2680
  710SOL    HW1 3550   6.651   2.047   2.107 -0.5102 -0.3081 -0.1326
  710SOL    HW2 3551   6.691   2.142   2.217 -0.2487 -1.3218  0.6576
  711SOL     OW 3552   5.658   3.741   5.580 -0.9410 -0.1989  0.0669
  711SOL    HW1 3553   5.748   3.766   5.602 -0.1487 -2.8696  0.1318
  711SOL    HW2 3554   5.604   3.789   5.643  0.5140  0.4791  0.8455
  712SOL     OW 3555   5.932   3.080   5.933 -0.1678 -0.1613 -1.0193
  712SOL    HW1 3556   5.879   3.027   5.873 -1.5551  0.5129 -0.4451
  712SOL    HW2 3557   5.868   3.126   5.987  1.0193  0.8588 -0.4222
  713SOL     OW 3558   0.097   4.317   6.105  0.1276 -0.1659  0.2920
  713SOL    HW1 3559   0.036   4.254   6.066  0.3112 -0.6583  0.8046
  713SOL    HW2 3560   0.080   4.313   6.199 -1.9453  2.7012  0.1535
  714SOL     OW 3561   1.645   7.896   3.904  0.1507 -0.1539  0.2983
  714SOL    HW1 3562   1.646   7.916   3.810 -0.6517  0.8776  0.4899
  714SOL    HW2 3563   1.737   7.890   3.928  0.3736  0.1996 -0.4329
  715SOL     OW 3564   4.656   4.418   2.180 -0.1252  0.2339  0.4090
  715SOL    HW1 3565   4.607   4.427   2.262  0.4864  0.1313  0.7925
  715SOL    HW2 3566   4.666   4.508   2.148  0.2350  0.3346  0.8042
  716SOL     OW 3567   4.448   5.928   2.341 -0.0412 -0.0446  0.2162
  716SOL    HW1 3568   4.384   5.857   2.350  0.5531 -0.7018 -0.6257
  716SOL    HW2 3569   4.507   5.899   2.273  1.1705  0.5571  0.9712
  717SOL     OW 3570   1.591   4.702   7.497 -0.7201 -0.6071 -0.2043
  717SOL    HW1 3571   1.548   4.680   7.415 -1.2947 -0.2488 -0.0052
  717SOL    HW2 3572   1.685   4.687   7.480 -0.8429 -0.6374 -0.8816
  718SOL     OW 3573   7.109   1.030   6.469 -0.6663 -0.1155  0.4960
  718SOL    HW1 3574   7.146   1.096   6.410 -0.3954 -0.2556  0.5077
  718SOL    HW2 3575   7.136   1.059   6.556 -1.7832  0.5615  0.6343
  719SOL     OW 3576   0.023   5.110   8.035  0.3000  0.5729 -0.4857
  719SOL    HW1 3577   0.030   5.037   8.096 -1.4128  0.1438 -0.7524
  719SOL    HW2 3578   0.054   5.074   7.952  1.7635  0.8894 -0.1009
  720SOL     OW 3579   6.862   2.668   7.254  0.0947  0.1439 -0.9172
  720SOL    HW1 3580   6.893   2.751   7.218 -0.6465  0.7103 -0.2931
  720SOL    HW2 3581   6.898   2.666   7.343 -1.2623  0.6179 -0.3307
  721SOL     OW 3582   2.073   6.671   5.153  0.0060  0.3372 -0.3169
  721SOL    HW1 3583   2.163   6.697   5.131 -0.6984  3.1837 -0.2864
  721SOL    HW2 3584   2.070   6.676   5.249  0.0887 -0.8552 -0.2459
  722SOL     OW 3585   5.437   4.131   6.238  0.1275 -0.2810  0.2835
  722SOL    HW1 3586   5.407   4.040   6.227 -0.4211 -0.1669  0.7765
  722SOL    HW2 3587   5.476   4.133   6.325  3.0096 -0.7927 -0.9027
  723SOL     OW 3588   7.589   3.199   3.628  0.2616  0.2508  0.3065
  723SOL    HW1 3589   7.645   3.220   3.552 -1.0395 -0.0158 -0.7637
  723SOL    HW2 3590   7.561   3.284   3.661 -0.9381  0.3558 -0.9069
  724SOL     OW 3591   7.162   4.946   4.231 -0.4086 -0.6599  0.3609
  724SOL    HW1 3592   7.241   4.966   4.281 -0.7889 -0.3304  0.8317
  724SOL    HW2 3593   7.169   4.853   4.210  1.5473 -0.0687 -2.1217
  725SOL     OW 3594   4.083   7.031   0.869 -0.1795 -0.1845 -0.2629
  725SOL    HW1 3595   4.125   6.949   0.895  0.9296 -0.1183 -1.7390
  725SOL    HW2 3596   4.078   7.027   0.774 -2.7782  0.2225 -0.2036
  726SOL     OW 3597   0.839   4.550   5.526 -0.4386  0.4626  0.3892
  726SOL    HW1 3598   0.838   4.466   5.573 -0.0738  0.6304  0.7023
  726SOL    HW2 3599   0.849   4.525   5.434  3.0630  0.1879  0.6810
  727SOL     OW 3600   2.229   3.035   6.058  0.1761 -0.2602 -0.0159
  727SOL    HW1 3601   2.278   3.022   5.977 -0.4708  0.5105 -0.5513
  727SOL    HW2 3602   2.285   2.999   6.126  1.4103  0.4593 -0.6261
  728SOL     OW 3603   0.136   6.078   5.580 -0.7164 -0.4226  0.2047
  728SOL    HW1 3604   0.158   6.138   5.652  2.3916 -1.7348  0.5263
  728SOL    HW2 3605   0.086   6.131   5.518  1.2466  2.3401  0.7989
  729SOL     OW 3606   2.558   2.789   1.168 -0.7347 -0.3860 -0.2023
  729SOL    HW1 3607   2.545   2.699   1.139 -1.3124 -0.1882 -0.5763
  729SOL    HW2 3608   2.635   2.819   1.120 -1.8121  0.0126 -1.7494
  730SOL     OW 3609   3.943   1.214   4.958  0.3931 -0.2483  0.5621
  730SOL    HW1 3610   3.891   1.233   4.880 -0.0244 -1.6356  0.4877
  730SOL    HW2 3611   3.878   1.193   5.026  0.8108 -1.1385  0.6995
  731SOL     OW 3612   2.142   3.643   1.814 -0.5549  0.2392  0.2067
  731SOL    HW1 3613   2.219   3.629   1.759  0.1073  1.6832  0.7236
  731SOL    HW2 3614   2.169   3.613   1.901 -0.6150  0.6473  0.3672
  732SOL     OW 3615   3.491   2.266   4.925  0.6179 -0.3704  0.0732
  732SOL    HW1 3616   3.508   2.350   4.882  0.4163  0.2716  1.2081
  732SOL    HW2 3617   3.478   2.205   4.853  0.6417  0.5949 -0.7797
  733SOL     OW 3618   2.464   6.045   7.149 -0.0680  0.1568  0.5650
  733SOL    HW1 3619   2.439   5.995   7.227 -0.6024 -0.8120 -0.1960
  733SOL    HW2 3620   2.534   6.103   7.179  1.1694 -1.6156  1.3380
  734SOL     OW 3621   0.360   0.516   4.794  0.4755 -0.3858 -0.0190
  734SOL    HW1 3622   0.404   0.597   4.769  0.2025 -0.0642  0.5296
  734SOL    HW2 3623   0.431   0.455   4.812  0.7002  0.0254  0.5157
  735SOL     OW 3624   3.634   4.447   4.247 -0.3781  0.3528  0.7012
  735SOL    HW1 3625   3.580   4.490   4.313 -0.7387 -1.1291  1.4150
  735SOL    HW2 3626   3.652   4.360   4.283  1.2287  0.2647 -0.1963
  736SOL     OW 3627   1.694   6.887   1.150 -0.3446 -0.3430 -0.1617
  736SOL    HW1 3628   1.634   6.894   1.075  1.0858  0.1688 -1.3175
  736SOL    HW2 3629   1.670   6.805   1.193 -0.3763 -1.3135 -1.9454
  737SOL     OW 3630   7.339   2.345   1.625 -0.0619 -0.0732  0.0590
  737SOL    HW1 3631   7.321   2.256   1.595  2.0029 -0.8613  0.9426
  737SOL    HW2 3632   7.399   2.334   1.699  1.1403  2.0850 -0.4929
  738SOL     OW 3633   1.884   5.397   7.973  0.4431 -0.1150  0.6579
  738SOL    HW1 3634   1.886   5.493   7.971  0.1829 -0.1124  0.5544
  738SOL    HW2 3635   1.911   5.371   7.885  0.4760 -0.1384  0.6748
  739SOL     OW 3636   5.159   7.019   2.906  0.3539  0.4514  0.6785
  739SOL    HW1 3637   5.244   7.006   2.864  0.1568  0.0105  0.3990
  739SOL    HW2 3638   5.100   7.039   2.833 -0.1486 -1.0865  0.6161
  740SOL     OW 3639   3.668   0.691   5.529 -0.0772  0.0972  0.3616
  740SOL    HW1 3640   3.685   0.726   5.442  1.4167 -1.1964  0.0888
  740SOL    HW2 3641   3.735   0.624   5.541 -0.8339 -0.3876  2.1439
  741SOL     OW 3642   5.987   7.132   2.756 -1.1068 -0.6352  0.1946
  741SOL    HW1 3643   5.916   7.181   2.797  0.3399  1.3085  0.5257
  741SOL    HW2 3644   6.066   7.182   2.778  0.3735 -2.6747 -0.2047
  742SOL     OW 3645   1.380   3.666   3.995  0.0018  0.0935 -0.7644
  742SOL    HW1 3646   1.343   3.719   3.925 -0.2623  0.7185 -0.1705
  742SOL    HW2 3647   1.426   3.729   4.051  1.6515 -0.6136 -1.2693
  743SOL     OW 3648   5.523   4.388   4.856 -0.1446 -0.0149  0.3560
  743SOL    HW1 3649   5.476   4.396   4.939  1.3906  2.3688  1.0908
  743SOL    HW2 3650   5.461   4.422   4.790  0.1091  2.2351  1.1849
  744SOL     OW 3651   2.408   0.297   4.317 -0.6491 -0.4503  0.3193
  744SOL    HW1 3652   2.371   0.347   4.390 -0.0565 -0.1506  0.4166
  744SOL    HW2 3653   2.392   0.205   4.341 -0.2444 -0.3653  0.9450
  745SOL     OW 3654   6.638   4.730   4.733  0.5990  0.6284 -0.1928
  745SOL    HW1 3655   6.563   4.671   4.727 -0.3551  1.6119  1.5325
  745SOL    HW2 3656   6.649   4.764   4.644 -0.3948 -0.2479 -0.6641
  746SOL     OW 3657   1.228   3.651   3.419 -0.0328 -0.1604 -0.6366
  746SOL    HW1 3658   1.297   3.613   3.473 -1.0283 -0.2916  0.6101
  746SOL    HW2 3659   1.177   3.704   3.480 -0.3083  0.9275 -1.7838
  747SOL     OW 3660   4.646   0.367   7.243 -0.0926  0.2550  0.5756
  747SOL    HW1 3661   4.624   0.352   7.334  0.1919 -4.1747  0.1480
  747SOL    HW2 3662   4.739   0.346   7.237 -0.2017  0.0260 -0.7555
  748SOL     OW 3663   2.660   2.517   5.317  0.6423 -0.0192 -0.0163
  748SOL    HW1 3664   2.662   2.608   5.349  0.6520  0.1961 -0.6312
  748SOL    HW2 3665   2.747   2.503   5.280 -0.4842  0.9603 -3.3320
  749SOL     OW 3666   7.259   0.953   1.897 -0.3889  0.1493 -0.6660
  749SOL    HW1 3667   7.255   0.987   1.987  2.4919  0.7598 -0.6927
  749SOL    HW2 3668   7.167   0.950   1.869 -1.2286  1.7936  1.5986
  750SOL     OW 3669   6.503   0.400   3.046 -0.2504  0.1163 -0.2633
  750SOL    HW1 3670   6.463   0.395   3.133 -1.3214 -0.1891 -0.7538
  750SOL    HW2 3671   6.536   0.312   3.030 -0.5164  0.0365 -0.3764
  751SOL     OW 3672   5.101   5.924   0.945 -0.3446 -0.6297 -0.0341
  751SOL    HW1 3673   5.089   5.938   1.039 -1.6919 -0.6163 -0.1917
  751SOL    HW2 3674   5.071   6.006   0.905  2.6444  0.4027 -0.3841
  752SOL     OW 3675   7.896   1.076   5.189  0.0063 -0.1430 -0.0818
  752SOL    HW1 3676   7.925   0.988   5.167 -1.3152 -0.2816 -1.4326
  752SOL    HW2 3677   7.961   1.108   5.252  1.5302 -1.3873 -0.9610
  753SOL     OW 3678   0.271   3.776   0.053  0.0968 -0.2079  1.1578
  753SOL    HW1 3679   0.350   3.804   0.008  0.6947  0.7891  2.7135
  753SOL    HW2 3680   0.282   3.682   0.065  0.7480 -0.1842  0.8040
  754SOL     OW 3681   1.921   6.313   5.899 -0.1273 -0.3480  0.1148
  754SOL    HW1 3682   1.928   6.401   5.863 -0.0159 -0.3951  0.0215
  754SOL    HW2 3683   1.909   6.256   5.823  1.4776 -0.6059  0.0174
  755SOL     OW 3684   6.094   6.558   0.196  0.3724 -0.4020 -0.0528
  755SOL    HW1 3685   6.019   6.576   0.252  0.2324 -2.1413  0.3686
  755SOL    HW2 3686   6.055   6.522   0.115  0.6624  0.4226 -0.5662
  756SOL     OW 3687   6.322   0.202   3.475 -0.0772  0.0103 -0.1992
  756SOL    HW1 3688   6.386   0.141   3.439 -3.1068 -1.9844 -2.7816
  756SOL    HW2 3689   6.280   0.152   3.545 -0.4407  0.3490 -0.1758
  757SOL     OW 3690   5.026   0.331   1.129 -0.6802 -0.1216 -0.3878
  757SOL    HW1 3691   4.955   0.387   1.159  0.0548 -0.1973  1.6067
  757SOL    HW2 3692   4.987   0.277   1.060 -2.3230  0.4328  0.0796
  758SOL     OW 3693   2.766   1.695   1.955  0.3673  0.9257 -0.2319
  758SOL    HW1 3694   2.786   1.737   2.039  1.3144 -1.2121  0.7028
  758SOL    HW2 3695   2.670   1.697   1.949  0.1440 -0.4153  1.8148
  759SOL     OW 3696   6.017   6.460   2.830  0.6381  0.1477 -0.3929
  759SOL    HW1 3697   5.979   6.515   2.762  1.0385  0.8033 -0.0883
  759SOL    HW2 3698   5.975   6.488   2.911  0.3891 -0.4193 -0.3193
  760SOL     OW 3699   4.902   2.819   1.808  0.1248 -0.6963  0.4589
  760SOL    HW1 3700   4.854   2.900   1.825  0.7511 -0.1074 -0.4736
  760SOL    HW2 3701   4.989   2.848   1.779  0.4805 -1.7087  0.4575
  761SOL     OW 3702   5.811   2.307   0.687  0.4449  0.1294  0.4585
  761SOL    HW1 3703   5.861   2.362   0.747 -0.3934 -1.0046  2.3102
  761SOL    HW2 3704   5.784   2.232   0.741 -1.0560 -0.5461 -1.1375
  762SOL     OW 3705   5.271   4.086   7.938 -0.4472 -0.3200 -0.6213
  762SOL    HW1 3706   5.316   4.028   7.876  0.4540 -1.2344  0.8432
  762SOL    HW2 3707   5.228   4.151   7.882  1.2213 -0.4624 -2.1761
  763SOL     OW 3708   7.729   5.045   4.422  0.3717  0.2010 -0.1152
  763SOL    HW1 3709   7.809   5.002   4.390  0.7849  0.2827  0.7975
  763SOL    HW2 3710   7.700   4.991   4.495  1.0092  1.5559  1.1824
  764SOL     OW 3711   4.789   3.281   5.179  0.1164 -0.0986  0.0607
  764SOL    HW1 3712   4.729   3.326   5.119 -0.4061 -0.4574  0.3167
  764SOL    HW2 3713   4.733   3.242   5.245  0.7237  0.7238  1.0929
  765SOL     OW 3714   4.216   2.904   5.084  0.5529  0.1290  0.0176
  765SOL    HW1 3715   4.146   2.927   5.145  1.3762  0.6956  0.7801
  765SOL    HW2 3716   4.276   2.850   5.135  0.7218 -0.2883 -0.6043
  766SOL     OW 3717   3.580   2.850   6.959  0.1018  0.3986 -0.1354
  766SOL    HW1 3718   3.594   2.769   6.910  0.1564 -0.1767  0.8113
  766SOL    HW2 3719   3.529   2.905   6.900  2.3910  0.7912 -1.9279
  767SOL     OW 3720   5.564   7.404   0.943 -0.1701 -0.2222 -0.3574
  767SOL    HW1 3721   5.472   7.411   0.919 -0.6042  1.5023  1.5287
  767SOL    HW2 3722   5.610   7.460   0.880 -0.2581 -1.6634 -1.7664
  768SOL     OW 3723   3.404   6.104   3.756 -0.3235  0.5518 -0.1764
  768SOL    HW1 3724   3.484   6.082   3.804  0.8089  0.4571 -1.9773
  768SOL    HW2 3725   3.351   6.154   3.818  0.4397 -0.6770  1.5526
  769SOL     OW 3726   0.929   7.422   5.725  0.0300  0.3089 -0.3644
  769SOL    HW1 3727   1.005   7.432   5.783  0.2316 -0.3154 -0.5102
  769SOL    HW2 3728   0.937   7.494   5.662  0.6437  0.0953 -0.5356
  770SOL     OW 3729   4.451   6.824   1.427 -0.0932  0.1354  0.0311
  770SOL    HW1 3730   4.363   6.845   1.460 -0.0394  0.6518 -0.1543
  770SOL    HW2 3731   4.436   6.790   1.339 -0.0053  1.5101 -0.5306
  771SOL     OW 3732   7.787   1.208   7.681  0.6602  0.3787  0.4204
  771SOL    HW1 3733   7.697   1.181   7.699  0.4305  0.3385 -0.7173
  771SOL    HW2 3734   7.841   1.133   7.708  0.0750 -1.0873 -2.2047
  772SOL     OW 3735   7.117   7.420   3.036 -0.0602  0.3360 -0.1560
  772SOL    HW1 3736   7.170   7.485   3.083  0.6005  0.4857 -1.0802
  772SOL    HW2 3737   7.071   7.373   3.105  1.0536  0.3989  0.6585
  773SOL     OW 3738   1.989   3.628   3.340  0.2474  0.2461  0.6520
  773SOL    HW1 3739   1.907   3.644   3.294  0.7938  1.1485 -0.0389
  773SOL    HW2 3740   1.966   3.563   3.407 -1.8721  2.9374  2.7951
  774SOL     OW 3741   1.987   6.548   2.405 -0.3714 -0.4496 -0.0380
  774SOL    HW1 3742   1.902   6.530   2.444 -0.4240 -1.2452 -0.5028
  774SOL    HW2 3743   2.048   6.545   2.479 -0.4400 -2.1490 -0.0131
  775SOL     OW 3744   1.960   1.633   1.842  0.0683 -0.4131  0.0443
  775SOL    HW1 3745   1.936   1.547   1.807  0.4567 -0.4722 -0.0834
  775SOL    HW2 3746   1.901   1.694   1.798  0.4162 -0.5091 -0.5724
  776SOL     OW 3747   1.972   7.624   4.008  0.2270  0.2169  0.0104
  776SOL    HW1 3748   1.968   7.719   4.000  1.7462  0.2446 -0.8733
  776SOL    HW2 3749   1.951   7.606   4.099  1.2491  1.5097  0.5243
  777SOL     OW 3750   0.509   3.179   7.500 -1.0763  0.0556  0.2856
  777SOL    HW1 3751   0.421   3.159   7.533 -1.4703  1.7870  0.3460
  777SOL    HW2 3752   0.510   3.143   7.412 -1.5641 -0.6815  0.5701
  778SOL     OW 3753   7.933   6.836   6.876 -0.2164  0.6416 -0.1732
  778SOL    HW1 3754   7.982   6.792   6.945  0.3667  2.2392  0.4632
  778SOL    HW2 3755   7.995   6.897   6.837 -0.5488 -0.1942 -2.1190
  779SOL     OW 3756   5.577   0.200   2.478  0.0760 -0.2460 -0.2612
  779SOL    HW1 3757   5.652   0.258   2.466  0.0565 -0.3500 -0.9205
  779SOL    HW2 3758   5.538   0.228   2.561  0.2620  0.4665 -0.4086
  780SOL     OW 3759   3.776   7.560   7.332 -0.3070  0.2051  0.1450
  780SOL    HW1 3760   3.682   7.544   7.334 -0.2293 -0.4679 -0.8519
  780SOL    HW2 3761   3.815   7.474   7.317  0.4756  0.4694  0.5872
  781SOL     OW 3762   1.930   5.424   0.528 -0.0604 -1.1422 -0.2314
  781SOL    HW1 3763   1.896   5.459   0.610 -1.2982 -0.6695 -0.9126
  781SOL    HW2 3764   1.987   5.493   0.494 -1.9552  0.0485 -1.2311
  782SOL     OW 3765   2.107   4.090   7.138  1.1638 -0.5578 -0.4919
  782SOL    HW1 3766   2.052   4.088   7.216  0.8357 -1.3390 -0.7279
  782SOL    HW2 3767   2.187   4.044   7.163  0.7692 -1.4485 -0.8072
  783SOL     OW 3768   8.038   7.277   1.337 -0.3697  0.0845  0.1339
  783SOL    HW1 3769   8.052   7.306   1.427  1.7836  2.8826 -0.9494
  783SOL    HW2 3770   8.125   7.250   1.308 -0.9661 -0.4038 -1.2513
  784SOL     OW 3771   3.138   8.017   3.818  0.0940 -0.8248 -0.6079
  784SOL    HW1 3772   3.099   8.102   3.839  0.1182 -0.7626 -0.8038
  784SOL    HW2 3773   3.232   8.032   3.824  0.0958 -0.8623 -0.5473
  785SOL     OW 3774   4.012   1.165   7.472  0.0576 -0.3603  0.2142
  785SOL    HW1 3775   4.052   1.207   7.396  0.4665  1.1138  1.1937
  785SOL    HW2 3776   4.083   1.114   7.512  0.1229 -0.3054  0.1684
  786SOL     OW 3777   2.725   2.771   2.539 -0.1317 -0.1349 -0.2267
  786SOL    HW1 3778   2.765   2.837   2.595 -1.0036 -1.2385  1.7806
  786SOL    HW2 3779   2.798   2.737   2.486  0.7391  0.8614  0.2943
  787SOL     OW 3780   4.909   6.753   7.577  0.3589 -0.4507 -0.2192
  787SOL    HW1 3781   4.890   6.775   7.486  1.4619  0.3318 -0.2859
  787SOL    HW2 3782   4.828   6.715   7.611 -0.5036  0.5381 -1.1247
  788SOL     OW 3783   6.134   6.038   7.474  0.0504  0.1560  0.4903
  788SOL    HW1 3784   6.194   6.108   7.448 -0.4767  0.0326 -1.1285
  788SOL    HW2 3785   6.172   5.958   7.438 -0.5128 -0.0724  0.3899
  789SOL     OW 3786   8.019   3.679   2.701  0.1391  0.2466 -0.1027
  789SOL    HW1 3787   8.081   3.621   2.656 -1.0193 -2.1260  1.1755
  789SOL    HW2 3788   8.075   3.736   2.754  1.3066 -1.1993  0.3081
  790SOL     OW 3789   1.426   0.870   2.353 -0.2978  0.1219 -0.2448
  790SOL    HW1 3790   1.466   0.844   2.271 -1.4572 -2.0834 -0.2126
  790SOL    HW2 3791   1.445   0.797   2.413 -0.1840  1.2889  1.1999
  791SOL     OW 3792   3.297   1.576   0.229 -0.2399  0.0774 -0.4422
  791SOL    HW1 3793   3.268   1.626   0.305  1.1092 -0.0621  0.2103
  791SOL    HW2 3794   3.239   1.500   0.226  0.3013 -0.4475  1.0982
  792SOL     OW 3795   3.526   7.317   1.872 -0.4767  0.2436  0.0560
  792SOL    HW1 3796   3.493   7.322   1.782  0.6047  0.0974 -0.3561
  792SOL    HW2 3797   3.619   7.299   1.863 -0.4861 -0.4979  1.2207
  793SOL     OW 3798   3.718   3.892   0.385  0.0174 -0.0871  0.4785
  793SOL    HW1 3799   3.730   3.961   0.319  0.8415  0.1433  0.8524
  793SOL    HW2 3800   3.686   3.817   0.336  0.0007  0.2796 -0.0826
  794SOL     OW 3801   2.780   2.958   2.200 -0.0721 -0.3926 -0.6502
  794SOL    HW1 3802   2.805   2.989   2.288  0.5021  1.9932 -1.5561
  794SOL    HW2 3803   2.732   2.877   2.215  0.8768 -0.5881  1.7900
  795SOL     OW 3804   2.851   1.094   1.341  0.6275  0.1450  0.0516
  795SOL    HW1 3805   2.839   1.181   1.304 -0.6153 -0.3185 -0.7150
  795SOL    HW2 3806   2.816   1.100   1.430  1.8020  0.7540  0.4945
  796SOL     OW 3807   0.174   8.025   5.614  0.2952  0.0716 -0.3456
  796SOL    HW1 3808   0.144   7.971   5.687 -1.4512 -0.5873 -1.4825
  796SOL    HW2 3809   0.200   8.108   5.654 -2.6426  0.5368  0.8390
  797SOL     OW 3810   0.653   7.657   7.229  0.1570  0.2708  0.8518
  797SOL    HW1 3811   0.580   7.645   7.289 -1.3538 -2.3761 -1.3040
  797SOL    HW2 3812   0.706   7.578   7.240  0.9958  0.7277  0.2013
  798SOL     OW 3813   7.800   1.257   6.444 -0.0813  0.7944 -0.4220
  798SOL    HW1 3814   7.786   1.270   6.538 -0.9077  1.7319 -0.6588
  798SOL    HW2 3815   7.756   1.331   6.403 -1.3014 -0.5536 -1.6569
  799SOL     OW 3816   3.301   1.007   1.754  0.4261 -0.3668 -0.0931
  799SOL    HW1 3817   3.261   0.926   1.784  0.0821 -0.3847 -0.5745
  799SOL    HW2 3818   3.227   1.067   1.741  0.6538 -0.0580  0.0259
  800SOL     OW 3819   1.875   7.203   5.458  0.7402 -0.2083  0.1442
  800SOL    HW1 3820   1.867   7.221   5.364  0.7683 -0.9350 -0.0037
  800SOL    HW2 3821   1.924   7.278   5.493  0.6830  0.0947 -0.4066
  801SOL     OW 3822   3.942   3.021   0.017 -0.3553 -0.9969 -0.4500
  801SOL    HW1 3823   3.875   2.990   0.077 -0.9325  0.8122 -0.1149
  801SOL    HW2 3824   3.933   3.116   0.016  3.9247 -0.2996  1.7459
  802SOL     OW 3825   4.469   0.746   4.833  0.4788 -0.1912 -0.4716
  802SOL    HW1 3826   4.519   0.794   4.767  0.1593 -1.5563 -1.7498
  802SOL    HW2 3827   4.393   0.802   4.850  0.3787  0.0113 -1.5333
  803SOL     OW 3828   1.514   5.419   5.445 -1.1117  0.0718 -0.2818
  803SOL    HW1 3829   1.517   5.514   5.436 -1.7225  0.2652  1.3841
  803SOL    HW2 3830   1.599   5.395   5.483 -0.3922 -0.2430 -1.9744
  804SOL     OW 3831   6.221   7.432   5.129  0.2659  0.4241  0.4631
  804SOL    HW1 3832   6.308   7.392   5.136  1.0985  2.3592  2.1644
  804SOL    HW2 3833   6.230   7.494   5.056 -0.1770 -0.4322 -0.3402
  805SOL     OW 3834   4.698   4.945   0.038  0.3548 -0.1598  0.2660
  805SOL    HW1 3835   4.605   4.967   0.049  1.0818  2.9003  1.4493
  805SOL    HW2 3836   4.722   4.901   0.119 -0.2644 -2.0495 -0.5281
  806SOL     OW 3837   1.739   7.960   1.966 -0.3701  0.4104  0.2334
  806SOL    HW1 3838   1.805   8.017   1.925 -0.6862  2.2265  2.0953
  806SOL    HW2 3839   1.775   7.872   1.957  0.5133  0.9327 -2.0697
  807SOL     OW 3840   1.392   6.242   0.564 -0.1953 -0.1843 -0.0758
  807SOL    HW1 3841   1.381   6.252   0.469 -1.1926 -0.4136  0.0051
  807SOL    HW2 3842   1.375   6.149   0.580 -0.4263 -0.0658  0.3752
  808SOL     OW 3843   0.092   1.828   6.506 -0.1967 -0.4720 -0.2111
  808SOL    HW1 3844   0.040   1.815   6.427 -0.4604 -0.0065 -0.1194
  808SOL    HW2 3845   0.175   1.863   6.475 -0.0677 -0.8727 -0.3280
  809SOL     OW 3846   5.353   1.068   0.498 -0.4023  0.0298 -0.1153
  809SOL    HW1 3847   5.409   1.001   0.538 -0.2429 -0.6793 -1.4595
  809SOL    HW2 3848   5.372   1.061   0.404 -0.3690  1.9894 -0.2859
  810SOL     OW 3849   1.174   6.502   5.613  0.0298 -0.1967  0.2769
  810SOL    HW1 3850   1.093   6.546   5.588 -0.3937 -0.3661  1.2998
  810SOL    HW2 3851   1.233   6.515   5.538 -0.0470  2.1402  0.5690
  811SOL     OW 3852   6.961   0.178   6.875  0.0860  0.1970 -0.4416
  811SOL    HW1 3853   7.006   0.195   6.957  0.3345 -1.5527 -0.1736
  811SOL    HW2 3854   7.003   0.099   6.841 -1.7650 -0.5997 -0.9532
  812SOL     OW 3855   5.417   1.101   3.946 -0.5660 -0.3971  0.4973
  812SOL    HW1 3856   5.393   1.161   4.017  0.2728 -0.1190  0.5543
  812SOL    HW2 3857   5.337   1.053   3.928 -1.2566  0.7361  0.4518
  813SOL     OW 3858   6.983   0.391   2.453 -0.2897 -0.6882 -0.1950
  813SOL    HW1 3859   6.985   0.418   2.361  0.2387  1.4154  0.3795
  813SOL    HW2 3860   7.067   0.418   2.488  0.2489 -3.0889  0.5416
  814SOL     OW 3861   0.762   6.634   3.724  0.3485 -0.4432  0.4233
  814SOL    HW1 3862   0.740   6.574   3.795 -2.0076  0.3373  0.4264
  814SOL    HW2 3863   0.775   6.579   3.647  0.6941 -1.1151  0.9581
  815SOL     OW 3864   2.419   3.134   7.199  0.4179  0.2337 -0.3300
  815SOL    HW1 3865   2.375   3.191   7.136 -1.4019  0.5625  1.1577
  815SOL    HW2 3866   2.365   3.139   7.278  2.3228 -0.5707  1.1070
  816SOL     OW 3867   5.137   6.295   6.913 -0.3443 -0.3407 -0.8390
  816SOL    HW1 3868   5.174   6.209   6.934  0.0193  0.1235  0.5421
  816SOL    HW2 3869   5.043   6.278   6.900 -0.3815 -0.8728  0.0267
  817SOL     OW 3870   6.738   4.470   6.188 -0.5627  0.2051 -0.3566
  817SOL    HW1 3871   6.781   4.552   6.214  1.4072 -0.6735 -0.6706
  817SOL    HW2 3872   6.678   4.496   6.118 -2.0608  1.7755  1.3766
  818SOL     OW 3873   8.013   0.130   3.919  0.3058 -0.4271 -0.0661
  818SOL    HW1 3874   8.015   0.034   3.923 -3.6407 -0.6739  0.2642
  818SOL    HW2 3875   7.966   0.156   3.999 -0.4698  1.6206 -1.1153
  819SOL     OW 3876   6.292   3.355   6.781  0.1346 -0.1139 -0.2753
  819SOL    HW1 3877   6.359   3.367   6.849 -2.3093 -0.2223  2.2946
  819SOL    HW2 3878   6.276   3.443   6.747  0.9994  0.0175 -0.3643
  820SOL     OW 3879   7.759   5.395   5.727 -0.4657 -0.5170  0.8402
  820SOL    HW1 3880   7.804   5.469   5.688 -0.1242 -0.9145  0.4674
  820SOL    HW2 3881   7.826   5.352   5.780 -0.4752 -0.9422  0.5166
  821SOL     OW 3882   6.078   5.009   1.729 -0.5846  0.0569  0.3602
  821SOL    HW1 3883   6.152   4.951   1.713 -0.0768  1.2277 -2.1081
  821SOL    HW2 3884   6.002   4.961   1.695 -0.5458 -0.0883  0.4789
  822SOL     OW 3885   7.789   8.034   2.591 -0.6411 -0.1998 -0.6941
  822SOL    HW1 3886   7.795   8.129   2.587  0.6481 -0.3090 -4.0693
  822SOL    HW2 3887   7.697   8.015   2.570 -0.5917  0.2538 -1.3122
  823SOL     OW 3888   4.619   2.896   4.470  0.1626  0.1474  0.0073
  823SOL    HW1 3889   4.594   2.922   4.382  1.4453  0.0605 -0.4073
  823SOL    HW2 3890   4.557   2.828   4.495 -1.4153  1.5032 -0.0517
  824SOL     OW 3891   6.261   1.400   0.254 -0.3144 -0.7226  0.1295
  824SOL    HW1 3892   6.270   1.306   0.265  0.6163 -0.5196  1.3718
  824SOL    HW2 3893   6.314   1.421   0.177  0.4687 -1.0777  0.5579
  825SOL     OW 3894   4.118   3.660   2.624  0.3010 -0.0593  0.1823
  825SOL    HW1 3895   4.188   3.687   2.565  1.3967 -0.9645  1.0236
  825SOL    HW2 3896   4.059   3.608   2.570  1.1519 -0.6513 -0.2016
  826SOL     OW 3897   3.352   3.583   1.150 -0.1593  0.2414 -0.3726
  826SOL    HW1 3898   3.296   3.507   1.161  0.6102 -0.5070 -1.3980
  826SOL    HW2 3899   3.292   3.657   1.143 -0.9016 -0.1788  1.1586
  827SOL     OW 3900   3.224   2.512   7.401  0.0867 -0.2996  0.2073
  827SOL    HW1 3901   3.275   2.578   7.448 -0.4703 -0.3942  0.9685
  827SOL    HW2 3902   3.189   2.558   7.325 -1.7933  0.8371  1.6571
  828SOL     OW 3903   2.573   1.580   5.426 -0.4653  0.0796 -0.6918
  828SOL    HW1 3904   2.588   1.537   5.510  0.8320 -1.2024 -1.5240
  828SOL    HW2 3905   2.659   1.610   5.399 -1.1247  1.9046 -0.8528
  829SOL     OW 3906   3.332   2.746   0.699  1.0582  0.5528 -0.4347
  829SOL    HW1 3907   3.338   2.652   0.685  1.9739  0.6141 -0.5167
  829SOL    HW2 3908   3.262   2.775   0.640  0.9740 -0.0290 -0.6218
  830SOL     OW 3909   7.109   1.375   0.853  0.2221 -0.6366  0.6833
  830SOL    HW1 3910   7.027   1.386   0.901  0.7992 -1.9300  2.0716
  830SOL    HW2 3911   7.175   1.363   0.921  1.3944 -0.6861 -0.4219
  831SOL     OW 3912   0.289   0.756   6.867  0.3462  0.6030  0.1528
  831SOL    HW1 3913   0.266   0.833   6.919 -1.4876 -1.3254  2.4490
  831SOL    HW2 3914   0.238   0.765   6.787  2.5006  3.1639 -1.1174
  832SOL     OW 3915   6.081   6.358   1.931  0.3380 -0.3480  0.0463
  832SOL    HW1 3916   6.025   6.350   2.008  1.2820  0.1214  0.7926
  832SOL    HW2 3917   6.144   6.426   1.953  1.1407 -0.7795 -0.8163
  833SOL     OW 3918   3.918   0.017   2.028  0.5319 -0.2455 -0.4796
  833SOL    HW1 3919   3.861   0.020   1.951  2.0610 -1.9851 -1.7811
  833SOL    HW2 3920   3.928   0.109   2.055 -2.0492  0.1751 -0.7633
  834SOL     OW 3921   3.583   0.791   5.004 -0.2075 -0.3521  0.0409
  834SOL    HW1 3922   3.488   0.788   5.013 -0.4843  3.3766 -0.0912
  834SOL    HW2 3923   3.599   0.858   4.938  2.5397 -0.3942  0.5506
  835SOL     OW 3924   7.209   1.703   1.098  0.2870 -0.4658 -0.1271
  835SOL    HW1 3925   7.285   1.696   1.041  0.1015 -0.9716 -0.3214
  835SOL    HW2 3926   7.151   1.765   1.053 -0.1983 -1.4489 -0.8927
  836SOL     OW 3927   0.043   1.245   3.372 -0.0148  0.2595 -0.2073
  836SOL    HW1 3928  -0.034   1.209   3.415  0.9751 -0.0864  1.3670
  836SOL    HW2 3929   0.104   1.171   3.366  0.8251  0.8987  0.1558
  837SOL     OW 3930   2.813   6.908   6.384  0.2146  0.0558  0.4001
  837SOL    HW1 3931   2.745   6.888   6.320 -0.8709 -0.7359  1.7173
  837SOL    HW2 3932   2.873   6.833   6.379  0.1075 -0.0254  0.3208
  838SOL     OW 3933   2.267   1.079   7.745 -0.4858  0.0095 -0.1543
  838SOL    HW1 3934   2.227   0.992   7.752  2.1418 -1.1727  1.5536
  838SOL    HW2 3935   2.320   1.074   7.665 -1.1379  0.4279 -0.6205
  839SOL     OW 3936   1.072   4.166   6.218  0.1560 -0.0646 -0.7356
  839SOL    HW1 3937   1.017   4.227   6.169 -0.5919 -1.8818 -2.2736
  839SOL    HW2 3938   1.070   4.085   6.167  3.5605 -0.5123 -0.4187
  840SOL     OW 3939   1.509   5.677   7.341  0.0394  0.1225  0.1343
  840SOL    HW1 3940   1.500   5.585   7.318  0.5809  0.2217 -0.5320
  840SOL    HW2 3941   1.510   5.679   7.436 -1.1214 -0.4354  0.1732
  841SOL     OW 3942   1.919   7.424   7.727 -0.0133 -0.0471 -0.5568
  841SOL    HW1 3943   1.993   7.371   7.758  0.0371  0.4608  0.2025
  841SOL    HW2 3944   1.936   7.512   7.761 -1.5716 -0.1700  0.6593
  842SOL     OW 3945   3.607   2.655   6.480  0.1000 -0.0633  0.2941
  842SOL    HW1 3946   3.572   2.621   6.398  1.3332  0.8754 -0.6631
  842SOL    HW2 3947   3.569   2.743   6.488 -0.1692 -0.2212  0.8448
  843SOL     OW 3948   7.061   6.091   6.303 -0.1468 -0.3346 -0.3743
  843SOL    HW1 3949   6.991   6.081   6.238  1.1720  0.8768 -2.0775
  843SOL    HW2 3950   7.142   6.080   6.252  0.9343 -1.2270  1.4545
  844SOL     OW 3951   7.318   7.058   3.581  0.0434  0.2275  0.1589
  844SOL    HW1 3952   7.386   7.037   3.646 -0.5762  1.4209  1.2190
  844SOL    HW2 3953   7.236   7.037   3.624 -0.3346 -0.2906 -0.7750
  845SOL     OW 3954   6.071   5.114   6.438 -0.1823  0.1564 -0.0377
  845SOL    HW1 3955   6.050   5.206   6.422 -0.1632  0.3404  0.8979
  845SOL    HW2 3956   5.985   5.072   6.449 -0.2665 -0.2498 -1.8819
  846SOL     OW 3957   7.304   4.261   2.631  0.5319  0.6033 -0.5168
  846SOL    HW1 3958   7.216   4.227   2.647  0.5447  0.6708 -0.3034
  846SOL    HW2 3959   7.323   4.317   2.707  0.9036  0.3008 -0.3864
  847SOL     OW 3960   4.859   5.159   3.531 -0.2500 -0.1233  0.2399
  847SOL    HW1 3961   4.925   5.216   3.570  0.1581 -0.6175  0.2867
  847SOL    HW2 3962   4.809   5.125   3.605 -1.5328  1.3897  0.1231
  848SOL     OW 3963   0.914   6.160   5.903 -0.2391  0.1615  0.5341
  848SOL    HW1 3964   0.875   6.121   5.981 -0.0128  0.6346  0.8911
  848SOL    HW2 3965   1.008   6.155   5.918 -0.1973  0.3745  0.3537
  849SOL     OW 3966   3.113   3.553   6.799  0.0707 -0.2433  0.4510
  849SOL    HW1 3967   3.151   3.486   6.743  0.7497  0.7402 -0.2996
  849SOL    HW2 3968   3.032   3.514   6.831  0.4020 -1.3779 -0.0500
  850SOL     OW 3969   5.623   4.119   4.955 -0.0192 -0.2918  0.0210
  850SOL    HW1 3970   5.565   4.189   4.985  0.8294  0.4185  0.0280
  850SOL    HW2 3971   5.711   4.147   4.981  0.3228 -1.4297  0.1626
  851SOL     OW 3972   2.276   1.723   4.848  0.3284  0.3979 -0.2601
  851SOL    HW1 3973   2.362   1.683   4.837 -0.1425 -0.5931 -0.4461
  851SOL    HW2 3974   2.215   1.660   4.810 -0.6731  0.1167  1.6695
  852SOL     OW 3975   3.908   4.818   3.780  0.2886  0.0131 -0.4556
  852SOL    HW1 3976   3.835   4.756   3.774  0.5572 -0.4854  1.0161
  852SOL    HW2 3977   3.983   4.770   3.746  0.1828  0.0754 -0.7751
  853SOL     OW 3978   0.228   0.590   0.136 -0.3440 -0.4182 -0.1269
  853SOL    HW1 3979   0.307   0.634   0.166 -0.9040 -0.6859  1.8902
  853SOL    HW2 3980   0.244   0.497   0.153 -0.4558 -0.6613 -1.2651
  854SOL     OW 3981   2.688   4.381   7.341  0.2281  0.5599 -0.1644
  854SOL    HW1 3982   2.616   4.324   7.314  1.2231 -0.0245 -1.7836
  854SOL    HW2 3983   2.741   4.327   7.398  0.9875 -0.0744 -1.4265
  855SOL     OW 3984   3.023   1.344   6.721 -0.0750 -0.0307 -0.2941
  855SOL    HW1 3985   3.003   1.430   6.684  0.1135 -0.3297 -1.0901
  855SOL    HW2 3986   3.083   1.303   6.659  0.0014 -0.6604  0.1802
  856SOL     OW 3987   5.583   0.382   0.230  0.2807  0.0501  0.6185
  856SOL    HW1 3988   5.570   0.454   0.170  0.2189  0.6681  1.3543
  856SOL    HW2 3989   5.590   0.423   0.316  2.8004 -0.5517  0.8011
  857SOL     OW 3990   3.424   6.534   4.119 -0.2100  0.0178  0.0746
  857SOL    HW1 3991   3.336   6.539   4.082 -0.4815  0.3076  0.7377
  857SOL    HW2 3992   3.483   6.555   4.046 -0.7180  0.4311 -0.2192
  858SOL     OW 3993   2.090   7.369   7.495 -0.2822  0.5327  0.1275
  858SOL    HW1 3994   2.009   7.418   7.507  0.7986  2.2360  0.8284
  858SOL    HW2 3995   2.132   7.372   7.581  0.2557 -0.8790 -0.0560
  859SOL     OW 3996   3.394   1.350   4.665  0.1885  0.0500  0.2472
  859SOL    HW1 3997   3.370   1.347   4.758 -3.4816  0.1540 -0.5635
  859SOL    HW2 3998   3.372   1.263   4.631  1.7793 -0.0911 -0.5234
  860SOL     OW 3999   2.169   4.544   1.991  0.4401  0.2616  0.5751
  860SOL    HW1 4000   2.156   4.636   1.971  0.4631  0.6951  2.4074
  860SOL    HW2 4001   2.118   4.528   2.071  0.4505 -1.3057  0.3168
  861SOL     OW 4002   6.480   1.372   4.474  0.3464 -0.2099  0.2570
  861SOL    HW1 4003   6.436   1.455   4.490 -0.6914 -1.1412  2.8422
  861SOL    HW2 4004   6.568   1.384   4.511 -0.2042 -0.5714  1.7786
  862SOL     OW 4005   2.587   2.161   2.083  0.0443 -0.3344  1.5291
  862SOL    HW1 4006   2.582   2.254   2.104  1.5768  0.2433 -0.3289
  862SOL    HW2 4007   2.678   2.148   2.055 -0.5688 -2.0096  0.1471
  863SOL     OW 4008   6.987   5.181   2.417  0.0873 -0.1218  0.4314
  863SOL    HW1 4009   7.037   5.160   2.495  0.5635 -1.0246 -0.0985
  863SOL    HW2 4010   6.914   5.119   2.418  0.6877 -0.8662 -0.3831
  864SOL     OW 4011   3.020   2.896   0.892  0.7131 -0.2353  0.1913
  864SOL    HW1 4012   3.000   2.836   0.820  2.2002 -0.7238  0.1508
  864SOL    HW2 4013   3.076   2.962   0.853  0.5408  0.1795  0.6415
  865SOL     OW 4014   6.334   3.292   3.512 -0.2687  0.3425  0.2517
  865SOL    HW1 4015   6.267   3.224   3.512 -0.1750  0.2374 -0.6689
  865SOL    HW2 4016   6.399   3.262   3.576  1.4065 -2.1149 -2.3792
  866SOL     OW 4017   2.166   4.427   1.627  0.0165 -0.2388 -0.0182
  866SOL    HW1 4018   2.086   4.403   1.675  1.1193 -1.4866  1.2682
  866SOL    HW2 4019   2.211   4.344   1.613  1.7546  0.5844  0.5004
  867SOL     OW 4020   6.674   3.759   6.680  0.0261  0.2634  0.4914
  867SOL    HW1 4021   6.738   3.782   6.612  1.2981 -0.8126  1.2570
  867SOL    HW2 4022   6.603   3.716   6.632  0.1456  0.9426 -0.3213
  868SOL     OW 4023   2.451   3.600   3.517 -0.0146 -0.5341 -0.2928
  868SOL    HW1 4024   2.500   3.560   3.589 -2.4278  0.2965  1.9760
  868SOL    HW2 4025   2.471   3.693   3.523 -2.8703  0.0800  1.7296
  869SOL     OW 4026   4.834   0.667   7.684 -0.6190  0.0102 -0.1515
  869SOL    HW1 4027   4.910   0.675   7.743 -0.7226  1.7122 -0.2066
  869SOL    HW2 4028   4.762   0.642   7.742 -0.1909 -0.9139  0.0112
  870SOL     OW 4029   5.996   8.034   0.485  0.2177  0.0337  0.4996
  870SOL    HW1 4030   6.068   8.080   0.529  1.1069 -0.5253 -0.3465
  870SOL    HW2 4031   6.015   7.941   0.498 -1.0512 -0.1420  1.3574
  871SOL     OW 4032   1.115   7.295   2.530  0.1534  0.4415  0.3130
  871SOL    HW1 4033   1.075   7.209   2.521 -0.4720  0.6284  1.1484
  871SOL    HW2 4034   1.059   7.340   2.594 -0.3236  1.9389 -1.0882
  872SOL     OW 4035   2.341   3.375   1.920 -0.0512  0.2940 -0.1242
  872SOL    HW1 4036   2.333   3.458   1.968 -0.8092 -0.3451  0.9071
  872SOL    HW2 4037   2.323   3.308   1.986 -0.7104 -0.6365 -1.2221
  873SOL     OW 4038   3.220   6.993   3.608 -0.4339 -0.1566 -0.3484
  873SOL    HW1 4039   3.221   7.024   3.517  1.1059  0.9309 -0.0118
  873SOL    HW2 4040   3.246   7.070   3.659  0.6581 -1.2449  0.8242
  874SOL     OW 4041   7.981   4.906   7.644  0.8786 -0.1200  0.4329
  874SOL    HW1 4042   7.907   4.963   7.622  0.0456 -1.1441  0.5200
  874SOL    HW2 4043   7.963   4.876   7.733  0.7922 -1.2857  0.0462
  875SOL     OW 4044   3.177   3.366   1.144  0.2677  0.1997 -0.5841
  875SOL    HW1 4045   3.156   3.275   1.163  0.4676  0.4423  0.9168
  875SOL    HW2 4046   3.101   3.416   1.173  0.6712  0.6057 -0.1874
  876SOL     OW 4047   5.368   1.764   1.133  0.2781 -0.4350 -0.3629
  876SOL    HW1 4048   5.311   1.697   1.095 -1.3318 -0.0057  1.1635
  876SOL    HW2 4049   5.390   1.821   1.059 -3.1202  0.6594 -0.6888
  877SOL     OW 4050   5.661   4.330   0.994 -0.0591 -0.3939 -0.2342
  877SOL    HW1 4051   5.611   4.252   1.020  0.6735 -0.1715  2.0832
  877SOL    HW2 4052   5.672   4.321   0.900 -1.1671 -2.4009 -0.2314
  878SOL     OW 4053   5.822   4.650   7.169 -0.3433 -0.3478  0.8074
  878SOL    HW1 4054   5.866   4.672   7.251 -0.4754 -0.0859  0.8095
  878SOL    HW2 4055   5.768   4.727   7.149 -0.1979 -0.3511  0.3955
  879SOL     OW 4056   0.751   4.024   0.583  0.0767  0.1134 -0.3675
  879SOL    HW1 4057   0.701   4.102   0.610 -0.5889 -0.8704  1.4085
  879SOL    HW2 4058   0.799   3.998   0.662  1.9634 -0.0885 -1.5112
  880SOL     OW 4059   6.463   3.952   7.878  0.0143 -0.1507 -0.0970
  880SOL    HW1 4060   6.505   4.037   7.868  0.7468 -0.4869  0.0587
  880SOL    HW2 4061   6.369   3.969   7.864  0.2657  0.4960 -1.1106
  881SOL     OW 4062   6.588   5.791   1.020  0.1630 -0.0096 -0.0189
  881SOL    HW1 4063   6.508   5.836   0.992  0.1732  0.4598  0.6737
  881SOL    HW2 4064   6.634   5.770   0.939  0.7048  2.2536 -0.3472
  882SOL     OW 4065   3.969   7.178   6.120 -0.0294  0.2071  0.2995
  882SOL    HW1 4066   3.965   7.274   6.120 -0.4795  0.2628 -2.1726
  882SOL    HW2 4067   4.052   7.158   6.161  0.5708  1.7361 -0.0701
  883SOL     OW 4068   2.632   0.754   7.269  0.3571 -0.0924  0.1473
  883SOL    HW1 4069   2.578   0.676   7.258  0.1454 -0.1205  1.2480
  883SOL    HW2 4070   2.595   0.817   7.207 -0.0402 -0.5737 -0.1194
  884SOL     OW 4071   5.905   2.047   0.575  0.2980  0.6688 -0.4035
  884SOL    HW1 4072   5.855   2.128   0.589  0.2015  0.3323  1.4450
  884SOL    HW2 4073   5.987   2.062   0.622  0.0433 -0.5200  0.4581
  885SOL     OW 4074   5.694   1.940   6.706  0.2879  0.1957  0.0051
  885SOL    HW1 4075   5.698   1.888   6.786  1.6358  1.5740  0.8792
  885SOL    HW2 4076   5.600   1.957   6.693 -0.0844 -1.4856  0.2961
  886SOL     OW 4077   7.972   5.311   7.011  0.6112 -0.2639  0.0149
  886SOL    HW1 4078   8.068   5.313   7.014  0.8551 -1.6179 -3.0283
  886SOL    HW2 4079   7.949   5.355   6.930 -1.0911 -2.5991 -0.8994
  887SOL     OW 4080   0.088   2.166   0.011  0.1834  0.1297  0.3220
  887SOL    HW1 4081   0.054   2.077  -0.001  1.0352 -0.1290 -0.1763
  887SOL    HW2 4082   0.164   2.155   0.068 -1.2271  0.8486  2.5200
  888SOL     OW 4083   2.270   2.993   1.101  0.1536 -0.1942 -0.1995
  888SOL    HW1 4084   2.346   2.982   1.158 -0.2543  1.5098  0.7305
  888SOL    HW2 4085   2.204   3.034   1.156 -1.7061 -2.1635 -0.8120
  889SOL     OW 4086   3.281   1.895   0.834  0.2559 -0.2138 -0.4181
  889SOL    HW1 4087   3.322   1.981   0.828 -1.2053  0.5523  0.1645
  889SOL    HW2 4088   3.350   1.838   0.870  0.3038  1.4571  2.4202
  890SOL     OW 4089   5.061   3.043   7.232  0.0163  0.2660  0.2177
  890SOL    HW1 4090   5.033   2.980   7.299 -0.5479 -0.0411 -0.2917
  890SOL    HW2 4091   5.146   3.010   7.202 -0.0652  0.0019  0.2747
  891SOL     OW 4092   0.007   2.839   2.561  0.0066 -0.4451 -0.2677
  891SOL    HW1 4093   0.027   2.928   2.531 -3.3866  0.6615  0.3204
  891SOL    HW2 4094   0.071   2.822   2.629  0.0495  2.0476  0.4255
  892SOL     OW 4095   7.218   2.978   4.773  0.1007  0.3220  0.1994
  892SOL    HW1 4096   7.225   2.946   4.863 -0.0454  1.3484  0.5842
  892SOL    HW2 4097   7.131   2.950   4.745  0.2910 -0.3253  0.2428
  893SOL     OW 4098   7.745   4.720   2.484 -0.4426 -0.6670  0.7638
  893SOL    HW1 4099   7.783   4.705   2.570  0.1712 -0.5630  0.5178
  893SOL    HW2 4100   7.817   4.754   2.431 -1.1339  0.5704  0.5689
  894SOL     OW 4101   2.048   7.017   2.266  0.0390  0.2805  0.2175
  894SOL    HW1 4102   2.003   6.935   2.246 -0.8136  0.3728  1.6067
  894SOL    HW2 4103   1.982   7.070   2.310  0.5265  1.7932 -0.7941
  895SOL     OW 4104   5.361   5.838   7.792 -0.4994 -0.0041 -0.6870
  895SOL    HW1 4105   5.426   5.845   7.862 -0.7301  0.8331 -0.5338
  895SOL    HW2 4106   5.327   5.927   7.783 -2.9873 -0.7328  0.5532
  896SOL     OW 4107   7.756   3.959   5.701 -0.1461  0.3590  0.5795
  896SOL    HW1 4108   7.717   3.983   5.617  0.8912  1.6002  0.4265
  896SOL    HW2 4109   7.754   4.039   5.752  0.9331  0.0999  1.0602
  897SOL     OW 4110   0.594   4.245   0.687  0.0334  0.5523 -0.4775
  897SOL    HW1 4111   0.505   4.247   0.652  0.1873  1.2975 -0.8246
  897SOL    HW2 4112   0.598   4.319   0.748  0.2311  0.1547  0.0033
  898SOL     OW 4113   3.378   4.817   5.341 -0.0103 -0.0977 -0.0606
  898SOL    HW1 4114   3.320   4.813   5.417  1.6106  2.0213  1.3843
  898SOL    HW2 4115   3.459   4.773   5.370  0.2800 -0.1614 -0.9241
  899SOL     OW 4116   0.021   0.461   2.106  0.1808 -0.3637 -0.8718
  899SOL    HW1 4117  -0.001   0.411   2.027  1.0289 -1.5590 -0.3721
  899SOL    HW2 4118  -0.043   0.433   2.171 -1.3769  1.6041 -1.4402
  900SOL     OW 4119   5.742   6.891   4.239 -0.1495  0.3393  0.0413
  900SOL    HW1 4120   5.679   6.865   4.172 -2.0456  3.3065  0.5301
  900SOL    HW2 4121   5.827   6.878   4.198 -1.2029  0.6251 -2.3709
  901SOL     OW 4122   4.817   1.912   7.791  0.2511  0.0475 -0.6256
  901SOL    HW1 4123   4.801   1.864   7.873  0.5256  0.5433 -0.2781
  901SOL    HW2 4124   4.869   1.852   7.738  0.0964 -0.2673 -0.4276
  902SOL     OW 4125   5.556   5.807   6.079  0.1368 -0.3554 -0.3573
  902SOL    HW1 4126   5.572   5.783   5.987  0.9688  0.2169 -0.3781
  902SOL    HW2 4127   5.461   5.802   6.089  0.0692 -0.8128 -1.1443
  903SOL     OW 4128   7.066   2.573   6.076  0.4802 -0.2312  0.3351
  903SOL    HW1 4129   7.132   2.611   6.133 -0.0969  0.2078  0.7270
  903SOL    HW2 4130   7.062   2.481   6.102  0.0396  0.0176  1.2053
  904SOL     OW 4131   1.790   2.102   1.931  0.3653  0.2618  0.4626
  904SOL    HW1 4132   1.792   2.029   1.869  1.2993  0.9902 -0.3883
  904SOL    HW2 4133   1.724   2.076   1.995  0.7671 -1.3864  0.2591
  905SOL     OW 4134   2.980   6.480   2.773 -0.2298 -0.4246  0.4346
  905SOL    HW1 4135   2.931   6.477   2.855  0.4621 -2.4111  0.8486
  905SOL    HW2 4136   3.032   6.399   2.773 -0.2278 -0.5212 -1.9785
  906SOL     OW 4137   4.144   1.202   1.331  0.3269  0.0599  0.2554
  906SOL    HW1 4138   4.062   1.187   1.377  1.1339 -2.2735  1.0838
  906SOL    HW2 4139   4.170   1.290   1.357 -1.3304  0.4121  0.8655
  907SOL     OW 4140   7.450   5.887   5.346  0.0233  0.2648  0.1791
  907SOL    HW1 4141   7.389   5.820   5.316 -0.5683  0.0684  1.7040
  907SOL    HW2 4142   7.410   5.922   5.426  1.9194  0.0603  1.2826
  908SOL     OW 4143   2.915   3.394   6.575  0.1213  0.0014 -0.0884
  908SOL    HW1 4144   2.886   3.450   6.647  1.7570  2.1325 -0.9615
  908SOL    HW2 4145   2.930   3.309   6.615  1.0264  1.1229  2.1470
  909SOL     OW 4146   4.781   6.735   2.538 -0.3129 -0.5760  0.3017
  909SOL    HW1 4147   4.864   6.744   2.585 -0.1532 -1.1590  0.1424
  909SOL    HW2 4148   4.797   6.665   2.475 -0.8360 -0.4848  0.0646
  910SOL     OW 4149   5.828   3.377   3.458 -0.4890 -0.0207  0.0795
  910SOL    HW1 4150   5.743   3.420   3.464 -0.5643 -0.3404  2.2719
  910SOL    HW2 4151   5.854   3.363   3.549  1.0177 -1.7072 -0.5469
  911SOL     OW 4152   4.252   1.462   6.063 -0.1110  0.0878  0.0359
  911SOL    HW1 4153   4.296   1.478   6.147 -0.1366  0.0761  0.0514
  911SOL    HW2 4154   4.160   1.453   6.085 -0.1086  0.0147  0.0145
  912SOL     OW 4155   0.281   7.071   6.607  0.2521 -0.0908  0.0604
  912SOL    HW1 4156   0.343   7.032   6.545 -0.0715  0.8191 -0.8482
  912SOL    HW2 4157   0.335   7.129   6.661  0.3263  0.0757 -0.1909
  913SOL     OW 4158   3.141   7.090   6.216  0.1119 -0.0873 -0.2728
  913SOL    HW1 4159   3.160   7.083   6.309  0.1261 -0.8859 -0.3305
  913SOL    HW2 4160   3.158   7.002   6.181 -4.6394 -1.3692 -0.1236
  914SOL     OW 4161   5.182   0.746   5.024 -0.4688  0.0629  0.3875
  914SOL    HW1 4162   5.097   0.742   5.068 -0.0049 -0.5422  1.2571
  914SOL    HW2 4163   5.187   0.664   4.975  0.2089 -0.5536  1.4740
  915SOL     OW 4164   0.645   7.963   1.089 -0.0683 -0.2866 -0.0308
  915SOL    HW1 4165   0.657   7.876   1.127  0.6762 -0.7360 -1.2132
  915SOL    HW2 4166   0.697   8.021   1.145 -0.0957 -0.6995  0.4278
  916SOL     OW 4167   2.455   6.003   7.479 -0.0761  0.1125  0.0231
  916SOL    HW1 4168   2.550   6.004   7.490 -0.0553 -1.3008  0.1012
  916SOL    HW2 4169   2.430   6.095   7.479  1.0032  0.4865  2.5293
  917SOL     OW 4170   2.955   0.939   0.473  0.1390  0.1202 -0.7180
  917SOL    HW1 4171   2.986   0.929   0.383 -0.7620 -1.3247 -0.8984
  917SOL    HW2 4172   2.881   0.878   0.480  1.4829 -1.3949  1.6120
  918SOL     OW 4173   2.384   0.700   0.737  0.1269 -0.1838  0.3057
  918SOL    HW1 4174   2.478   0.715   0.752  0.0456 -0.0346  0.6874
  918SOL    HW2 4175   2.364   0.752   0.660  0.5506 -0.9340 -0.3220
  919SOL     OW 4176   0.135   1.508   3.402 -0.6092 -0.0472  0.2661
  919SOL    HW1 4177   0.081   1.429   3.403 -0.9753  0.0803 -2.2772
  919SOL    HW2 4178   0.074   1.578   3.377 -0.0891  0.8846  1.5295
  920SOL     OW 4179   3.704   1.687   2.535 -0.3225 -0.3293  0.4515
  920SOL    HW1 4180   3.610   1.698   2.553 -0.3241 -2.3052  1.9379
  920SOL    HW2 4181   3.744   1.768   2.566 -1.5507  0.7860 -0.7072
  921SOL     OW 4182   1.719   5.312   0.792  0.3589 -0.1700  0.2769
  921SOL    HW1 4183   1.772   5.384   0.757 -0.0092 -0.8960 -1.8981
  921SOL    HW2 4184   1.781   5.260   0.844  0.8934  1.0323  0.8974
  922SOL     OW 4185   2.138   1.673   3.012 -0.8391 -0.2342 -0.0320
  922SOL    HW1 4186   2.176   1.641   3.094 -0.6441  0.1203  0.0188
  922SOL    HW2 4187   2.194   1.638   2.944 -1.2595 -0.8992 -0.0445
  923SOL     OW 4188   7.005   4.343   3.781 -0.3874  0.4914  0.2435
  923SOL    HW1 4189   6.946   4.316   3.851  0.3493 -0.7114  0.4186
  923SOL    HW2 4190   7.069   4.400   3.823 -0.0930 -0.0311  0.5190
  924SOL     OW 4191   5.612   1.210   6.361 -0.1446  0.5744 -0.1476
  924SOL    HW1 4192   5.680   1.214   6.294 -0.3053  1.1670 -0.2851
  924SOL    HW2 4193   5.632   1.283   6.420 -1.3194  1.4988 -0.8428
  925SOL     OW 4194   4.435   7.045   2.663  0.3037 -0.1725  0.3566
  925SOL    HW1 4195   4.491   6.967   2.660 -0.0615 -0.5109  1.6300
  925SOL    HW2 4196   4.466   7.093   2.740  0.9923  1.3276 -0.8033
  926SOL     OW 4197   5.046   2.851   0.875  0.2737  0.3282 -0.0326
  926SOL    HW1 4198   5.070   2.920   0.813 -1.3479  1.6900  0.7712
  926SOL    HW2 4199   4.983   2.797   0.828 -0.8467  1.2770  0.3432
  927SOL     OW 4200   7.365   3.621   3.042 -0.1328  0.0445  0.1475
  927SOL    HW1 4201   7.410   3.537   3.032 -0.4474 -0.1354  0.2556
  927SOL    HW2 4202   7.403   3.660   3.121 -1.9049 -1.2078  1.6990
  928SOL     OW 4203   0.649   5.304   3.511 -0.0147 -0.5771 -0.2380
  928SOL    HW1 4204   0.646   5.397   3.530  0.1511 -0.7220  0.5435
  928SOL    HW2 4205   0.736   5.289   3.474  0.3150 -0.5743  0.5197
  929SOL     OW 4206   2.725   0.976   7.018 -0.1424  0.5538  0.0228
  929SOL    HW1 4207   2.783   1.016   6.954 -0.7913  1.6513  0.0851
  929SOL    HW2 4208   2.782   0.956   7.093  0.2935  0.9266 -0.2028
  930SOL     OW 4209   7.201   0.732   2.122 -0.0251 -0.0122 -0.1290
  930SOL    HW1 4210   7.150   0.811   2.139 -0.4208 -0.6161  1.6944
  930SOL    HW2 4211   7.144   0.677   2.068 -0.7036 -0.0070  0.5635
  931SOL     OW 4212   6.284   1.332   7.794 -0.2227 -0.3329  0.0962
  931SOL    HW1 4213   6.206   1.349   7.846  1.0644  0.9656  1.7117
  931SOL    HW2 4214   6.344   1.287   7.854  0.0615 -1.9376 -1.3133
  932SOL     OW 4215   4.704   1.003   4.345  0.0318  0.1486 -0.7146
  932SOL    HW1 4216   4.625   1.053   4.326  0.5638  1.0896 -0.5324
  932SOL    HW2 4217   4.730   0.965   4.261  0.2613  1.1430 -1.0993
  933SOL     OW 4218   6.674   4.558   4.965  0.1514 -0.7419 -0.3223
  933SOL    HW1 4219   6.650   4.608   4.887 -1.5916 -2.6498 -1.0937
  933SOL    HW2 4220   6.769   4.546   4.957  0.5064  1.6950 -0.4928
  934SOL     OW 4221   4.503   6.994   3.606 -0.2140  0.4582 -0.0297
  934SOL    HW1 4222   4.422   7.040   3.627  0.1504  0.7231  0.8153
  934SOL    HW2 4223   4.514   6.930   3.676 -0.0906 -0.1068 -0.5566
  935SOL     OW 4224   3.365   6.797   4.487  0.2081  0.7280  0.1331
  935SOL    HW1 4225   3.284   6.848   4.483 -1.1143 -1.0395  2.3003
  935SOL    HW2 4226   3.428   6.855   4.529 -0.5129  1.4233  0.2791
  936SOL     OW 4227   5.818   5.415   0.894 -0.2174  0.2041  0.4352
  936SOL    HW1 4228   5.748   5.470   0.859  2.0327  1.9640 -1.6918
  936SOL    HW2 4229   5.804   5.330   0.853 -1.6322  0.2134  0.8303
  937SOL     OW 4230   7.750   3.784   7.040  0.3682 -0.2783 -0.2981
  937SOL    HW1 4231   7.829   3.832   7.019  0.0453  1.0123  1.2576
  937SOL    HW2 4232   7.681   3.826   6.988  0.2080  0.5620  0.5579
  938SOL     OW 4233   4.352   1.456   4.767  0.2989 -0.1564 -0.7885
  938SOL    HW1 4234   4.384   1.545   4.782  0.6770 -0.1083 -1.8322
  938SOL    HW2 4235   4.257   1.463   4.780  0.4693  0.0951  0.4613
  939SOL     OW 4236   0.038   1.248   2.574 -0.1594  0.4059  0.0780
  939SOL    HW1 4237   0.010   1.157   2.565 -1.4008  0.7117  0.6765
  939SOL    HW2 4238   0.092   1.264   2.496 -1.7629 -0.1878 -1.2083
  940SOL     OW 4239   4.737   5.384   1.102  0.4413 -0.3157 -0.1098
  940SOL    HW1 4240   4.648   5.417   1.094  0.8229  0.8302  0.1724
  940SOL    HW2 4241   4.738   5.305   1.048  0.1255  1.4312 -2.8592
  941SOL     OW 4242   0.624   6.813   7.146 -0.1316  0.0849 -0.0221
  941SOL    HW1 4243   0.611   6.719   7.158 -0.8468  0.2605  0.7251
  941SOL    HW2 4244   0.558   6.853   7.203 -0.9838  1.0316 -1.6155
  942SOL     OW 4245   2.612   7.570   0.609  0.3950  0.0138  0.2897
  942SOL    HW1 4246   2.690   7.526   0.577  0.3326 -0.2715  0.5321
  942SOL    HW2 4247   2.590   7.526   0.691  0.8000  1.0110  0.9577
  943SOL     OW 4248   6.832   7.678   3.727 -0.0211 -0.2784  0.5825
  943SOL    HW1 4249   6.872   7.765   3.722  1.0814 -0.7998 -0.5421
  943SOL    HW2 4250   6.738   7.695   3.731  0.1253  0.9747 -0.3375
  944SOL     OW 4251   0.512   5.505   1.806  0.0522 -0.8280  0.7617
  944SOL    HW1 4252   0.506   5.485   1.899 -0.3045  2.7195  1.6085
  944SOL    HW2 4253   0.603   5.531   1.793  0.2698 -1.8980 -0.0924
  945SOL     OW 4254   5.559   1.173   4.570  0.3424 -0.5320  0.1520
  945SOL    HW1 4255   5.633   1.230   4.588  1.7260 -1.7910 -1.2727
  945SOL    HW2 4256   5.540   1.130   4.654  1.8384 -0.8604  0.3479
  946SOL     OW 4257   5.250   4.456   2.676 -0.3941  0.4314  0.6197
  946SOL    HW1 4258   5.238   4.497   2.590  1.1932 -0.5053 -0.0839
  946SOL    HW2 4259   5.164   4.420   2.697 -0.4999 -0.5019 -1.2133
  947SOL     OW 4260   1.655   3.321   4.378 -0.1228 -0.5760  0.0381
  947SOL    HW1 4261   1.582   3.293   4.323 -0.6618 -1.8837  1.3540
  947SOL    HW2 4262   1.622   3.398   4.425  1.1235  2.0865 -3.0607
  948SOL     OW 4263   6.129   3.184   7.330  0.5966  0.3789  0.2672
  948SOL    HW1 4264   6.115   3.106   7.383 -1.9764  1.1653  0.8893
  948SOL    HW2 4265   6.077   3.169   7.251  0.6928  1.1231  0.0541
  949SOL     OW 4266   7.560   0.233   3.573  0.1045  0.0743 -0.0921
  949SOL    HW1 4267   7.535   0.325   3.566 -3.0252 -0.6563  0.3766
  949SOL    HW2 4268   7.574   0.219   3.667  0.6160  0.0508 -0.1664
  950SOL     OW 4269   1.527   3.915   5.585 -0.1856  0.1570  0.2277
  950SOL    HW1 4270   1.498   3.989   5.531  0.6481  0.8480  0.7099
  950SOL    HW2 4271   1.467   3.915   5.660  0.3258  0.8817  0.6531
  951SOL     OW 4272   0.120   6.213   7.858  0.2398 -0.2184  0.6141
  951SOL    HW1 4273   0.203   6.255   7.834  0.3919 -1.6751 -1.7493
  951SOL    HW2 4274   0.145   6.142   7.916  0.6726 -0.5824 -0.0027
  952SOL     OW 4275   1.597   0.868   5.913  0.2428  0.1860 -0.3907
  952SOL    HW1 4276   1.513   0.914   5.909 -0.4123 -0.9820 -0.3844
  952SOL    HW2 4277   1.607   0.844   6.005  0.4294  0.0354 -0.4492
  953SOL     OW 4278   1.843   5.743   7.514 -0.6852  0.0447  0.3286
  953SOL    HW1 4279   1.813   5.779   7.430 -2.2305 -1.8429 -0.0072
  953SOL    HW2 4280   1.862   5.651   7.495  0.7485  0.0298  1.6641
  954SOL     OW 4281   3.469   4.913   0.018  0.2470  0.2413 -0.1044
  954SOL    HW1 4282   3.437   4.921  -0.072  0.0966 -1.0311 -0.1761
  954SOL    HW2 4283   3.390   4.920   0.072  0.3646  1.2465 -0.0409
  955SOL     OW 4284   7.410   1.072   4.554  0.1433 -0.2589 -0.0878
  955SOL    HW1 4285   7.337   1.011   4.539 -0.9247  1.0457 -0.4589
  955SOL    HW2 4286   7.475   1.047   4.488 -1.1297  0.2563 -1.6174
  956SOL     OW 4287   7.918   1.653   1.005  0.0414  0.6425  0.4742
  956SOL    HW1 4288   7.986   1.590   1.029 -0.5715  0.5429  2.0425
  956SOL    HW2 4289   7.840   1.599   0.991  0.2981  0.7231 -1.6031
  957SOL     OW 4290   7.380   0.513   0.935  0.2489  0.1250  0.9555
  957SOL    HW1 4291   7.442   0.574   0.974  0.3460 -0.1521  1.2341
  957SOL    HW2 4292   7.431   0.467   0.868 -0.0172  0.8720  0.2260
  958SOL     OW 4293   2.701   4.697   0.999  0.2374 -0.6480  0.7350
  958SOL    HW1 4294   2.672   4.637   0.929 -0.3732 -0.6639  0.9937
  958SOL    HW2 4295   2.623   4.709   1.053  0.7486 -0.7632  1.5135
  959SOL     OW 4296   0.624   0.177   6.010 -0.1180 -0.3614 -0.2817
  959SOL    HW1 4297   0.588   0.211   5.929 -1.6111  2.3371  1.3633
  959SOL    HW2 4298   0.711   0.217   6.016 -0.5635  0.6069  0.0524
  960SOL     OW 4299   2.270   6.874   6.917 -0.3088  0.0715 -0.3262
  960SOL    HW1 4300   2.306   6.950   6.873  1.8293  0.3562  1.6842
  960SOL    HW2 4301   2.234   6.908   6.999  1.7136 -1.0810  1.1560
  961SOL     OW 4302   6.735   1.013   3.504 -0.2802 -0.3258 -0.1545
  961SOL    HW1 4303   6.664   0.981   3.560 -0.9472  0.9063 -0.2440
  961SOL    HW2 4304   6.774   1.084   3.555 -0.4277  0.3275 -0.9356
  962SOL     OW 4305   1.233   6.115   3.422 -0.8070 -0.2482  0.4965
  962SOL    HW1 4306   1.145   6.092   3.392 -0.2125 -1.7942 -0.2179
  962SOL    HW2 4307   1.290   6.052   3.377  0.5083 -0.2832  2.1287
  963SOL     OW 4308   1.541   7.994   2.417 -0.5445 -0.0494 -0.0589
  963SOL    HW1 4309   1.493   8.048   2.479 -0.7528  0.6855 -0.8511
  963SOL    HW2 4310   1.568   7.917   2.468  0.3516  1.0931  1.2633
  964SOL     OW 4311   1.557   3.963   2.281  0.1170  0.2180  0.0074
  964SOL    HW1 4312   1.583   3.898   2.215  0.2129  1.6114 -1.3947
  964SOL    HW2 4313   1.472   3.932   2.312  1.1016 -1.7079  0.9858
  965SOL     OW 4314   7.372   6.161   6.240 -0.2145  0.0280 -0.0218
  965SOL    HW1 4315   7.344   6.253   6.241 -3.0680 -0.7605  0.9416
  965SOL    HW2 4316   7.375   6.136   6.333  2.3774 -0.4130 -0.1532
  966SOL     OW 4317   2.306   0.526   4.520 -0.1044  0.5471  0.1322
  966SOL    HW1 4318   2.304   0.597   4.583 -0.0804  0.7721 -0.1162
  966SOL    HW2 4319   2.255   0.455   4.561  0.7024  0.3436  0.7985
  967SOL     OW 4320   3.511   3.355   6.555  0.2168  0.1820 -0.3622
  967SOL    HW1 4321   3.478   3.418   6.491  0.0554  1.5076  0.9652
  967SOL    HW2 4322   3.546   3.409   6.626  1.3706 -1.2319  0.1939
  968SOL     OW 4323   7.283   4.470   7.008  0.6292 -0.7703 -0.3668
  968SOL    HW1 4324   7.373   4.488   6.981  1.0258  0.7299  1.7487
  968SOL    HW2 4325   7.288   4.386   7.053  1.0276 -0.5546 -0.0090
  969SOL     OW 4326   5.352   0.609   3.905 -0.5256  0.2481  0.0210
  969SOL    HW1 4327   5.341   0.518   3.932 -1.6598  0.7908  1.5336
  969SOL    HW2 4328   5.312   0.613   3.818  1.1173 -1.0410 -0.8560
  970SOL     OW 4329   0.131   0.178   2.396 -0.3279  0.2952 -0.4235
  970SOL    HW1 4330   0.196   0.125   2.442  0.4267  1.1514 -0.4747
  970SOL    HW2 4331   0.058   0.118   2.381  0.2312 -0.5454  0.1003
  971SOL     OW 4332   3.211   4.678   8.044 -0.3748  0.3762  0.1939
  971SOL    HW1 4333   3.248   4.598   8.081 -0.4572 -0.5374 -1.6114
  971SOL    HW2 4334   3.146   4.707   8.109  0.9397  0.0333  1.7232
  972SOL     OW 4335   7.807   0.529   6.409  0.6248 -0.1291  0.0207
  972SOL    HW1 4336   7.814   0.539   6.504  0.6804 -2.4076  0.3235
  972SOL    HW2 4337   7.764   0.444   6.397  0.7097  0.0541 -2.0106
  973SOL     OW 4338   4.695   4.925   2.578  0.0864  0.9321  0.4010
  973SOL    HW1 4339   4.601   4.943   2.585  0.1496  1.1799  0.6189
  973SOL    HW2 4340   4.731   4.950   2.664  0.5248  1.8897 -0.0430
  974SOL     OW 4341   7.047   6.294   1.518  0.6053 -0.4192 -0.5010
  974SOL    HW1 4342   7.124   6.239   1.534  1.8415  1.2669 -0.3330
  974SOL    HW2 4343   7.062   6.371   1.573 -0.9137  0.2350 -0.9622
  975SOL     OW 4344   4.406   1.331   8.045 -0.1967  0.1741  0.5737
  975SOL    HW1 4345   4.384   1.297   7.958  1.1252  0.5053  0.0858
  975SOL    HW2 4346   4.371   1.266   8.106 -2.1785  0.5154 -0.1381
  976SOL     OW 4347   5.223   1.596   3.786 -0.0405 -0.5883 -0.0781
  976SOL    HW1 4348   5.246   1.565   3.874 -0.5164 -1.0915 -0.1307
  976SOL    HW2 4349   5.234   1.520   3.729 -0.1393 -0.3734 -0.3877
  977SOL     OW 4350   6.023   2.546   6.268  0.1277  0.3399  0.3151
  977SOL    HW1 4351   6.011   2.612   6.336  2.2469  1.3270 -0.1917
  977SOL    HW2 4352   5.973   2.470   6.299 -2.1810  2.0393  1.0347
  978SOL     OW 4353   2.303   0.112   6.022  0.4576 -0.3399  0.9143
  978SOL    HW1 4354   2.306   0.202   5.988  1.2733  0.4064  2.7928
  978SOL    HW2 4355   2.373   0.066   5.974  1.0178  0.4341  0.9624
  979SOL     OW 4356   0.052   0.528   1.406 -0.0240 -0.2730  0.2199
  979SOL    HW1 4357   0.108   0.604   1.423 -0.5836  0.4127 -0.8749
  979SOL    HW2 4358  -0.019   0.535   1.469 -0.0644  0.1180  0.1364
  980SOL     OW 4359   0.357   3.241   5.705 -0.0580  1.1233  0.0778
  980SOL    HW1 4360   0.275   3.274   5.667  0.8624  1.3681 -1.7760
  980SOL    HW2 4361   0.346   3.254   5.799 -2.8765 -0.5072  0.0717
  981SOL     OW 4362   4.975   3.024   2.842  0.0842 -0.0876 -0.3112
  981SOL    HW1 4363   4.903   3.038   2.904  0.0925 -0.9679 -0.0969
  981SOL    HW2 4364   4.952   2.944   2.795  0.9169 -0.3719 -0.2443
  982SOL     OW 4365   1.231   3.177   0.540  0.3240  0.3120  0.5363
  982SOL    HW1 4366   1.317   3.219   0.543 -0.0657  1.4336 -1.5428
  982SOL    HW2 4367   1.172   3.239   0.583  0.1572  0.8243 -0.3871
  983SOL     OW 4368   1.718   7.755   0.935 -0.0522 -0.3181 -0.0896
  983SOL    HW1 4369   1.668   7.742   0.854  1.6563 -1.0896 -1.0926
  983SOL    HW2 4370   1.759   7.840   0.925  1.4304 -1.0788 -0.8119
  984SOL     OW 4371   5.716   5.159   2.206  0.2198  0.1035  0.4339
  984SOL    HW1 4372   5.729   5.121   2.120 -0.3989 -0.4873  0.5975
  984SOL    HW2 4373   5.796   5.137   2.254 -0.8346 -2.6527  1.1211
  985SOL     OW 4374   1.600   0.936   4.961  0.4327 -0.4310 -0.2763
  985SOL    HW1 4375   1.532   1.003   4.967  1.9878  1.1731  0.2549
  985SOL    HW2 4376   1.578   0.873   5.030  0.5145  1.0985  1.2147
  986SOL     OW 4377   6.340   5.362   1.274 -0.2297  0.0433  0.2904
  986SOL    HW1 4378   6.254   5.401   1.290 -0.8236 -0.0512 -2.2978
  986SOL    HW2 4379   6.367   5.395   1.189  1.9298 -0.6365  0.6406
  987SOL     OW 4380   4.908   3.204   3.212  0.4665 -0.3092 -0.1771
  987SOL    HW1 4381   4.949   3.125   3.249 -0.2852 -0.4530  0.3892
  987SOL    HW2 4382   4.837   3.171   3.157 -0.3298 -0.0338  0.6500
  988SOL     OW 4383   5.104   0.831   7.445 -0.5972 -0.1374  0.0205
  988SOL    HW1 4384   5.134   0.858   7.359  2.0199 -1.4092  0.4400
  988SOL    HW2 4385   5.034   0.768   7.427 -0.4785  0.0460 -1.1487
  989SOL     OW 4386   7.750   1.179   6.880  0.0629 -0.2380  0.2515
  989SOL    HW1 4387   7.837   1.209   6.853  0.2576 -0.0862  1.0331
  989SOL    HW2 4388   7.766   1.121   6.954 -0.4636 -0.7193 -0.0046
  990SOL     OW 4389   0.077   6.475   7.562 -0.2929 -0.3632  0.4087
  990SOL    HW1 4390   0.128   6.509   7.635 -2.2943  1.7320  0.9889
  990SOL    HW2 4391   0.013   6.416   7.602 -0.7331 -0.0120  0.2385
  991SOL     OW 4392   5.424   6.983   5.298 -0.1793  0.1718 -0.3239
  991SOL    HW1 4393   5.422   7.000   5.392  1.2726 -0.4875 -0.1509
  991SOL    HW2 4394   5.334   7.000   5.269 -0.3741  1.5862  0.9548
  992SOL     OW 4395   4.019   2.073   5.658 -0.3736 -0.2415 -0.1816
  992SOL    HW1 4396   4.066   2.066   5.741  0.8489  0.8976 -0.7496
  992SOL    HW2 4397   3.928   2.090   5.683  0.1030  0.8001  0.9271
  993SOL     OW 4398   4.428   1.743   4.785 -0.4186 -0.4471 -0.1975
  993SOL    HW1 4399   4.460   1.804   4.851  0.7621 -0.0044 -1.1456
  993SOL    HW2 4400   4.377   1.797   4.724 -1.3798 -0.8276  0.2457
  994SOL     OW 4401   5.503   6.340   2.306 -0.8630 -0.3393  0.3380
  994SOL    HW1 4402   5.496   6.275   2.376 -1.3660  0.3122  0.9063
  994SOL    HW2 4403   5.535   6.291   2.231 -0.6531 -1.1238  0.9281
  995SOL     OW 4404   1.456   3.103   6.146  0.0603 -0.1700 -0.1619
  995SOL    HW1 4405   1.506   3.164   6.200  0.4193  0.6141 -1.3440
  995SOL    HW2 4406   1.425   3.036   6.208  2.4689 -0.6657  0.6409
  996SOL     OW 4407   1.848   4.949   4.718  0.0911 -0.0077 -0.1543
  996SOL    HW1 4408   1.754   4.967   4.728  0.3210  0.8180  0.6958
  996SOL    HW2 4409   1.852   4.855   4.697 -0.8744 -0.2833  0.7708
  997SOL     OW 4410   0.229   6.443   8.059 -0.8173  0.3741  0.2821
  997SOL    HW1 4411   0.141   6.443   8.097 -1.1220 -0.2513 -0.3999
  997SOL    HW2 4412   0.260   6.353   8.069 -0.8443  0.2310 -0.7870
  998SOL     OW 4413   3.763   1.660   4.502 -0.2093  0.2655 -0.3483
  998SOL    HW1 4414   3.784   1.676   4.410 -0.6458  2.6761 -0.1057
  998SOL    HW2 4415   3.847   1.671   4.548 -0.4057  1.4648 -0.2440
  999SOL     OW 4416   7.732   2.689   5.739  0.1511 -0.0475 -0.0636
  999SOL    HW1 4417   7.677   2.754   5.696 -1.0021 -1.3864 -0.7017
  999SOL    HW2 4418   7.815   2.691   5.690 -0.0106  0.6533 -0.3179
 1000SOL     OW 4419   0.494   7.191   3.648  0.8569  0.0127 -0.3144
 1000SOL    HW1 4420   0.517   7.267   3.594 -0.2798 -0.3739 -1.4158
 1000SOL    HW2 4421   0.440   7.137   3.590  0.8666 -1.1791  0.7518
 1001SOL     OW 4422   3.418   2.339   0.088 -0.1737 -0.3082 -0.3467
 1001SOL    HW1 4423   3.424   2.257   0.039  0.1058 -0.3148 -0.2999
 1001SOL    HW2 4424   3.446   2.406   0.026 -2.3133  0.0222 -1.0634
 1002SOL     OW 4425   0.357   1.860   7.292  0.5063  0.8007  0.8009
 1002SOL    HW1 4426   0.304   1.861   7.212  0.7703 -0.2875  0.5925
 1002SOL    HW2 4427   0.429   1.921   7.273  1.4037 -0.5613 -0.4100
 1003SOL     OW 4428   1.780   4.490   1.718  0.1989 -0.1988  0.7088
 1003SOL    HW1 4429   1.741   4.501   1.804  0.4464  0.0618  0.7884
 1003SOL    HW2 4430   1.830   4.408   1.724 -1.6257 -1.4090  0.1217
 1004SOL     OW 4431   6.796   3.968   4.434  0.2488  0.1106 -0.0348
 1004SOL    HW1 4432   6.890   3.955   4.443 -0.1826 -1.7940  3.3601
 1004SOL    HW2 4433   6.781   4.056   4.470  0.7702  0.7741 -1.3882
 1005SOL     OW 4434   3.205   0.700   0.851  0.1476 -0.3607  0.1351
 1005SOL    HW1 4435   3.190   0.619   0.801 -1.8285 -0.0125  0.0914
 1005SOL    HW2 4436   3.144   0.763   0.812  0.3366  0.6228  1.3907
 1006SOL     OW 4437   1.562   6.679   5.341 -0.1075 -0.7186  0.2676
 1006SOL    HW1 4438   1.639   6.662   5.395  0.8393  0.8360 -0.5141
 1006SOL    HW2 4439   1.591   6.746   5.279 -1.7273 -1.0425 -0.8990
 1007SOL     OW 4440   8.014   6.191   0.027 -0.2855  0.1916  0.5759
 1007SOL    HW1 4441   8.075   6.218  -0.042  0.4142  0.9690  1.4717
 1007SOL    HW2 4442   8.052   6.226   0.107 -2.5141  1.7569  1.0319
 1008SOL     OW 4443   0.835   5.080   5.869  0.0708 -0.0800  0.5292
 1008SOL    HW1 4444   0.773   5.138   5.913  0.2752  0.2980  0.3288
 1008SOL    HW2 4445   0.917   5.093   5.917  0.6118  1.2358 -0.6600
 1009SOL     OW 4446   7.030   3.378   5.561 -0.4320 -0.5176 -0.0637
 1009SOL    HW1 4447   7.067   3.460   5.594  0.5751 -0.4007 -1.3990
 1009SOL    HW2 4448   7.078   3.309   5.606 -2.1545 -0.4566  2.0413
 1010SOL     OW 4449   7.039   7.302   1.591 -0.6778  0.5910 -0.1068
 1010SOL    HW1 4450   7.111   7.362   1.571  0.4178 -1.7149 -4.1466
 1010SOL    HW2 4451   7.071   7.247   1.662  0.6142  1.0242 -0.3357
 1011SOL     OW 4452   2.377   7.578   4.676 -0.1338 -0.0703 -0.3387
 1011SOL    HW1 4453   2.357   7.485   4.674 -2.4705  0.3160  0.9813
 1011SOL    HW2 4454   2.320   7.616   4.609  0.4110  0.4718 -0.5060
 1012SOL     OW 4455   4.748   1.288   2.851  0.1527 -0.2610  0.1624
 1012SOL    HW1 4456   4.730   1.244   2.935 -1.2544 -1.8740 -0.9009
 1012SOL    HW2 4457   4.814   1.233   2.809 -0.4064 -0.4686 -0.4784
 1013SOL     OW 4458   3.025   1.627   4.158  0.0719 -0.8924 -0.1088
 1013SOL    HW1 4459   2.947   1.580   4.130 -0.9908  0.2121  0.8599
 1013SOL    HW2 4460   3.045   1.686   4.085  0.2711 -1.4771 -0.5345
 1014SOL     OW 4461   4.610   0.376   1.958  0.0738 -0.0754 -0.6703
 1014SOL    HW1 4462   4.673   0.320   2.001 -0.0786  0.6713  0.5660
 1014SOL    HW2 4463   4.533   0.321   1.945 -0.3949  0.0462  1.3207
 1015SOL     OW 4464   1.882   5.426   7.356 -0.4427 -0.0150 -0.1501
 1015SOL    HW1 4465   1.878   5.431   7.451 -0.0121  0.2062 -0.1400
 1015SOL    HW2 4466   1.925   5.342   7.338 -1.4255 -0.5281 -0.1765
 1016SOL     OW 4467   2.422   4.496   3.142  0.0297  0.1415 -0.4108
 1016SOL    HW1 4468   2.462   4.467   3.223 -0.5788  1.7407  0.5203
 1016SOL    HW2 4469   2.340   4.538   3.170 -0.8209 -0.3977 -1.9741
 1017SOL     OW 4470   4.776   3.327   4.147  0.1637 -0.0720 -0.0266
 1017SOL    HW1 4471   4.748   3.320   4.055  1.5929  3.0926 -0.8441
 1017SOL    HW2 4472   4.698   3.356   4.193  0.1256  1.1037 -0.8015
 1018SOL     OW 4473   1.402   0.683   4.889 -0.2797  0.1807  0.3439
 1018SOL    HW1 4474   1.308   0.696   4.875 -0.4868 -0.5347  1.0464
 1018SOL    HW2 4475   1.416   0.702   4.982  0.2620  0.2272  0.2590
 1019SOL     OW 4476   3.783   3.976   1.961  0.3276  0.0758  0.4883
 1019SOL    HW1 4477   3.796   4.067   1.991 -0.1845  0.0705  0.7451
 1019SOL    HW2 4478   3.696   3.977   1.921 -0.1256 -0.5300  1.4255
 1020SOL     OW 4479   7.258   5.731   2.950  0.0882  0.0950 -0.3515
 1020SOL    HW1 4480   7.333   5.685   2.912  0.3032  0.3979 -0.3011
 1020SOL    HW2 4481   7.184   5.706   2.895  0.3300  0.2274 -0.7449
 1021SOL     OW 4482   1.247   2.170   7.212  0.0202  0.1337 -0.5021
 1021SOL    HW1 4483   1.180   2.195   7.275  1.1596 -0.5038  1.0395
 1021SOL    HW2 4484   1.328   2.210   7.244  0.5758  0.0901 -1.7627
 1022SOL     OW 4485   2.400   7.570   5.134  0.3304 -0.0845  0.2714
 1022SOL    HW1 4486   2.462   7.579   5.061  1.0775 -0.9457  0.7664
 1022SOL    HW2 4487   2.316   7.555   5.092  0.6482  0.0091 -0.4189
 1023SOL     OW 4488   3.756   5.209   0.219 -0.3320  0.4050  0.5378
 1023SOL    HW1 4489   3.804   5.289   0.236  1.4723 -0.2570 -1.0922
 1023SOL    HW2 4490   3.752   5.165   0.304  0.2772  1.3610  1.0777
 1024SOL     OW 4491   6.660   1.846   3.624  0.2165  0.1175  0.5093
 1024SOL    HW1 4492   6.595   1.830   3.555  0.4379 -0.6331  0.4707
 1024SOL    HW2 4493   6.628   1.924   3.669 -0.7518 -0.2749  0.5330
 1025SOL     OW 4494   5.887   3.579   5.864  0.0399 -0.3454 -0.2854
 1025SOL    HW1 4495   5.811   3.568   5.807  0.0329 -1.3432 -0.0920
 1025SOL    HW2 4496   5.959   3.537   5.817  0.5496  0.7863 -0.5730
 1026SOL     OW 4497   4.510   6.031   7.725 -0.5948 -0.2330 -0.5351
 1026SOL    HW1 4498   4.500   6.051   7.632 -2.2159  1.9350  0.0192
 1026SOL    HW2 4499   4.583   6.086   7.753  0.0178 -1.0281 -0.5260
 1027SOL     OW 4500   4.060   1.776   2.067  0.0144  0.0695 -0.7020
 1027SOL    HW1 4501   3.986   1.806   2.120 -0.4290  0.7649 -1.6753
 1027SOL    HW2 4502   4.101   1.856   2.034  1.0997 -0.3160 -0.3218
 1028SOL     OW 4503   4.453   2.980   1.434 -0.2699 -0.0626 -0.7709
 1028SOL    HW1 4504   4.444   3.018   1.346  0.9734  1.7779 -0.1539
 1028SOL    HW2 4505   4.547   2.981   1.451 -0.5833  0.8581  1.1026
 1029SOL     OW 4506   1.557   6.742   6.692  0.6470 -0.4433 -0.6115
 1029SOL    HW1 4507   1.478   6.695   6.719  0.4178  0.8694  1.2172
 1029SOL    HW2 4508   1.540   6.768   6.602 -2.4546  2.4605  0.6005
 1030SOL     OW 4509   4.370   7.165   4.821 -0.1753  0.5239  0.4747
 1030SOL    HW1 4510   4.415   7.108   4.760 -0.3280 -0.0608  0.8973
 1030SOL    HW2 4511   4.293   7.115   4.849  0.6283  0.1866  2.2105
 1031SOL     OW 4512   6.122   4.944   0.520  0.1929 -0.1220  0.7060
 1031SOL    HW1 4513   6.194   4.945   0.583 -1.8345 -0.3970  3.2330
 1031SOL    HW2 4514   6.090   4.854   0.520 -0.5254  0.1143  0.1004
 1032SOL     OW 4515   1.503   1.790   3.597 -0.3529  0.2059 -0.1231
 1032SOL    HW1 4516   1.512   1.749   3.683 -1.0326 -2.3139 -1.1292
 1032SOL    HW2 4517   1.588   1.829   3.579 -0.0365  0.2925  1.4539
 1033SOL     OW 4518   0.713   4.140   3.224  0.1004 -0.6558  0.0716
 1033SOL    HW1 4519   0.787   4.083   3.203  0.5629 -1.5109  3.3945
 1033SOL    HW2 4520   0.748   4.229   3.217  1.3900 -1.0416  1.2461
 1034SOL     OW 4521   0.133   2.057   1.516  0.1365 -0.2414 -0.0549
 1034SOL    HW1 4522   0.106   1.983   1.571 -1.2210 -1.6025 -2.3735
 1034SOL    HW2 4523   0.161   2.016   1.434  1.7429  1.7194 -0.5740
 1035SOL     OW 4524   6.587   7.106   2.476 -0.4472  0.1004  0.0829
 1035SOL    HW1 4525   6.606   7.091   2.384 -0.7329  0.0338  0.0335
 1035SOL    HW2 4526   6.624   7.192   2.495 -0.5846  0.2122 -0.1523
 1036SOL     OW 4527   3.581   5.552   0.928  0.7886  0.0028  0.1714
 1036SOL    HW1 4528   3.503   5.544   0.982  1.4949 -1.0022  1.0951
 1036SOL    HW2 4529   3.554   5.605   0.853 -1.1408 -1.4498 -0.2223
 1037SOL     OW 4530   6.991   5.519   0.919 -0.4820  0.3171 -0.0944
 1037SOL    HW1 4531   6.944   5.459   0.862  1.5920 -2.4371  0.8767
 1037SOL    HW2 4532   6.957   5.501   1.007  0.1712  0.5391  0.2140
 1038SOL     OW 4533   2.761   0.334   5.524 -0.4384 -0.1550 -0.2644
 1038SOL    HW1 4534   2.746   0.421   5.560 -0.8002  0.0783 -0.9613
 1038SOL    HW2 4535   2.790   0.282   5.599  1.2481  0.9138 -0.1340
 1039SOL     OW 4536   2.715   4.259   4.872  0.4079 -0.3137 -0.7496
 1039SOL    HW1 4537   2.723   4.292   4.783  1.0281 -2.6973 -1.6476
 1039SOL    HW2 4538   2.804   4.260   4.907  0.4029 -0.7352 -0.7090
 1040SOL     OW 4539   1.786   1.687   4.288 -0.3183 -0.1011 -0.0549
 1040SOL    HW1 4540   1.869   1.645   4.311  0.5199  1.0980 -0.7417
 1040SOL    HW2 4541   1.779   1.676   4.193 -0.9350 -0.1808 -0.0019
 1041SOL     OW 4542   7.093   7.543   2.476 -0.5663  0.2070 -0.8198
 1041SOL    HW1 4543   7.013   7.561   2.427 -0.7357 -0.4102 -0.7725
 1041SOL    HW2 4544   7.163   7.578   2.421 -0.7701 -0.3110 -1.4133
 1042SOL     OW 4545   2.682   5.210   2.480  0.3350 -0.1711 -0.0400
 1042SOL    HW1 4546   2.599   5.170   2.503  0.1775 -1.1981 -2.1640
 1042SOL    HW2 4547   2.659   5.296   2.446  0.3551  0.3274  1.1469
 1043SOL     OW 4548   3.579   4.776   3.815  0.2433  0.1634  0.1519
 1043SOL    HW1 4549   3.485   4.784   3.828 -0.1471 -0.3829 -1.9482
 1043SOL    HW2 4550   3.589   4.758   3.721  2.4568  0.4916  0.2663
 1044SOL     OW 4551   6.617   7.052   0.988  0.0989  0.2713 -0.2179
 1044SOL    HW1 4552   6.659   6.991   1.048 -1.0195 -1.0901 -0.7406
 1044SOL    HW2 4553   6.669   7.046   0.908 -0.8255 -1.1353 -0.7455
 1045SOL     OW 4554   2.937   2.144   2.320  0.1403 -0.4709 -0.6476
 1045SOL    HW1 4555   2.883   2.076   2.360 -0.6691  0.9474  0.7909
 1045SOL    HW2 4556   3.022   2.135   2.363  0.3859 -1.2501 -1.2685
 1046SOL     OW 4557   2.195   7.486   2.911 -0.1193  0.2943 -0.1247
 1046SOL    HW1 4558   2.199   7.406   2.859 -1.6592  1.2251 -1.7878
 1046SOL    HW2 4559   2.286   7.515   2.918  0.3721 -1.1723 -0.1417
 1047SOL     OW 4560   3.852   0.853   4.514 -0.1732  0.5684 -0.4325
 1047SOL    HW1 4561   3.791   0.788   4.549 -0.5496 -0.6162 -3.0393
 1047SOL    HW2 4562   3.897   0.888   4.591 -1.1261 -1.5854  1.2136
 1048SOL     OW 4563   0.651   4.317   2.204  0.1984  0.2796  0.1043
 1048SOL    HW1 4564   0.721   4.333   2.267  0.0825  0.8675  0.0851
 1048SOL    HW2 4565   0.570   4.324   2.255  0.0811  1.2651 -0.2086
 1049SOL     OW 4566   1.419   2.233   2.172  0.2368  0.8340 -0.5858
 1049SOL    HW1 4567   1.500   2.279   2.148  0.3476  0.7163 -0.4377
 1049SOL    HW2 4568   1.374   2.220   2.088  0.4989  0.6603 -0.7022
 1050SOL     OW 4569   1.604   1.037   2.212 -0.4157  0.8085  0.2923
 1050SOL    HW1 4570   1.533   1.088   2.173 -1.3779 -0.6505  0.0257
 1050SOL    HW2 4571   1.585   1.037   2.306 -0.8775  0.2866  0.2037
 1051SOL     OW 4572   3.269   2.361   3.790  0.6027 -0.4246 -0.0737
 1051SOL    HW1 4573   3.316   2.438   3.759  1.7366 -1.4467 -1.0091
 1051SOL    HW2 4574   3.206   2.395   3.853  0.8013  1.2961 -0.7528
 1052SOL     OW 4575   2.819   3.868   1.392 -0.4394  0.5942  0.1203
 1052SOL    HW1 4576   2.852   3.906   1.473 -1.7704  1.1873  0.4168
 1052SOL    HW2 4577   2.747   3.811   1.420  1.2270 -1.8809 -0.3456
 1053SOL     OW 4578   3.724   4.822   8.047 -0.8187 -0.3508  0.2998
 1053SOL    HW1 4579   3.722   4.726   8.043 -1.6957 -0.3111 -0.3187
 1053SOL    HW2 4580   3.636   4.847   8.074  0.1655  0.1913  3.3758
 1054SOL     OW 4581   5.035   0.713   3.875  0.4321  0.3639 -0.6729
 1054SOL    HW1 4582   5.061   0.638   3.928  1.4923  0.4105 -1.1016
 1054SOL    HW2 4583   5.022   0.677   3.787  0.3016  0.5735 -0.7414
 1055SOL     OW 4584   7.545   0.151   1.695 -1.0548  0.5362  0.2113
 1055SOL    HW1 4585   7.532   0.057   1.702  0.9999  0.1145 -0.9051
 1055SOL    HW2 4586   7.551   0.169   1.602 -0.4837  1.6196  0.4307
 1056SOL     OW 4587   7.170   6.040   1.322 -0.1029 -0.1877  0.1303
 1056SOL    HW1 4588   7.251   6.003   1.357 -0.2046 -0.8152 -0.2888
 1056SOL    HW2 4589   7.198   6.091   1.245  0.2042  1.7308  1.4426
 1057SOL     OW 4590   1.952   0.266   6.581  1.0865 -0.4167  0.3357
 1057SOL    HW1 4591   1.980   0.236   6.668  1.6824 -0.6175  0.0739
 1057SOL    HW2 4592   2.024   0.244   6.523  0.2506 -1.2825 -0.4185
 1058SOL     OW 4593   3.427   3.168   6.390  0.1427 -0.0504 -0.5923
 1058SOL    HW1 4594   3.462   3.235   6.449  0.8533 -2.1610  1.5287
 1058SOL    HW2 4595   3.418   3.213   6.306 -0.8543  3.1109  1.0342
 1059SOL     OW 4596   2.039   7.558   5.782  0.1297 -0.1568 -0.1374
 1059SOL    HW1 4597   2.018   7.651   5.785  1.8406  0.2870 -0.5548
 1059SOL    HW2 4598   2.133   7.554   5.801 -0.0112 -1.8488  0.4109
 1060SOL     OW 4599   5.311   5.827   3.644  0.0761  0.3267 -0.1381
 1060SOL    HW1 4600   5.387   5.886   3.640 -0.7911  1.5322  0.5930
 1060SOL    HW2 4601   5.305   5.803   3.737  0.8623 -1.5691 -0.5271
 1061SOL     OW 4602   1.668   6.176   4.317  0.3307  0.2248 -0.0789
 1061SOL    HW1 4603   1.579   6.177   4.354  1.0271  0.1671  1.7388
 1061SOL    HW2 4604   1.676   6.260   4.271 -0.3662  0.6423  0.5309
 1062SOL     OW 4605   2.698   7.213   2.619  0.0373 -0.2726 -0.4352
 1062SOL    HW1 4606   2.669   7.138   2.567  1.1390 -1.0532  0.0527
 1062SOL    HW2 4607   2.653   7.204   2.702  0.5146 -0.6575 -0.2135
 1063SOL     OW 4608   7.499   4.990   3.814  0.3045 -0.2119  0.2695
 1063SOL    HW1 4609   7.466   4.928   3.880  0.1009 -0.1316  0.2422
 1063SOL    HW2 4610   7.509   5.072   3.862  2.1347 -0.6519  0.7242
 1064SOL     OW 4611   7.371   7.289   4.292  0.5671 -0.0977  0.4567
 1064SOL    HW1 4612   7.456   7.271   4.334  0.7106 -0.1352  0.1535
 1064SOL    HW2 4613   7.308   7.283   4.363  0.8481  0.1727  0.7326
 1065SOL     OW 4614   1.338   6.675   2.989 -0.1713  0.1140 -0.3899
 1065SOL    HW1 4615   1.277   6.606   2.964  0.0719  0.1478 -1.1140
 1065SOL    HW2 4616   1.413   6.629   3.026 -0.5846  0.0674  0.4081
 1066SOL     OW 4617   6.273   4.538   7.528 -0.1800  0.3225 -0.3743
 1066SOL    HW1 4618   6.277   4.618   7.581  0.9209  0.5851 -0.8324
 1066SOL    HW2 4619   6.257   4.569   7.439 -0.6136 -0.0318 -0.4233
 1067SOL     OW 4620   0.609   1.420   0.379 -0.1203 -0.1483 -0.1578
 1067SOL    HW1 4621   0.560   1.391   0.302 -2.1571 -0.4879  1.1786
 1067SOL    HW2 4622   0.569   1.504   0.402  0.8723  0.2430  0.1967
 1068SOL     OW 4623   1.183   7.237   3.267 -0.2445  0.2965 -0.0321
 1068SOL    HW1 4624   1.111   7.179   3.292 -1.0402  0.7172 -1.2328
 1068SOL    HW2 4625   1.145   7.294   3.200  1.1157  0.7709 -0.4308
 1069SOL     OW 4626   2.444   2.664   2.689  0.0417 -0.3541 -0.0092
 1069SOL    HW1 4627   2.520   2.721   2.703 -0.5251 -0.0335  2.1503
 1069SOL    HW2 4628   2.378   2.699   2.749 -1.1331 -1.8520 -0.3921
 1070SOL     OW 4629   7.213   4.387   5.672 -0.0457 -0.3187  0.3342
 1070SOL    HW1 4630   7.290   4.334   5.695  0.6782  0.4636 -0.2280
 1070SOL    HW2 4631   7.139   4.335   5.703  0.7108 -0.9906  1.0971
 1071SOL     OW 4632   3.700   6.043   2.953 -0.1453 -0.0935 -0.4462
 1071SOL    HW1 4633   3.651   6.013   3.030  1.3705 -0.5065  0.3775
 1071SOL    HW2 4634   3.681   6.137   2.949 -0.2814 -0.0756  0.3959
 1072SOL     OW 4635   7.251   5.239   5.420 -0.0233  0.1749 -0.0425
 1072SOL    HW1 4636   7.341   5.249   5.389 -0.6292  2.1015 -1.3795
 1072SOL    HW2 4637   7.211   5.178   5.358  0.2351 -0.3458  0.2978
 1073SOL     OW 4638   1.681   4.341   4.632 -0.5555  0.4343 -0.0784
 1073SOL    HW1 4639   1.699   4.392   4.553  3.2531 -1.1228 -0.4716
 1073SOL    HW2 4640   1.611   4.282   4.608  1.9486 -1.5592 -3.2920
 1074SOL     OW 4641   7.439   1.816   1.794  0.2052 -0.4629  0.4269
 1074SOL    HW1 4642   7.422   1.910   1.800 -1.2650 -0.5767 -1.0198
 1074SOL    HW2 4643   7.365   1.775   1.838 -0.1327 -0.9426 -0.5554
 1075SOL     OW 4644   2.342   0.232   7.451 -0.1000 -0.8532 -0.4244
 1075SOL    HW1 4645   2.276   0.279   7.400 -0.8163  0.5922  1.6915
 1075SOL    HW2 4646   2.419   0.289   7.448 -0.0135 -0.9592 -0.1963
 1076SOL     OW 4647   4.924   4.851   1.907 -0.3460  0.0941 -0.0774
 1076SOL    HW1 4648   4.908   4.927   1.963  0.1823  1.7181 -2.0209
 1076SOL    HW2 4649   4.841   4.834   1.864 -0.6407 -0.8985  0.8218
 1077SOL     OW 4650   3.977   4.556   0.701  0.3314 -0.0394 -0.2737
 1077SOL    HW1 4651   3.986   4.461   0.689  3.4902  0.1390 -0.2677
 1077SOL    HW2 4652   4.041   4.578   0.768  0.8166  2.2874 -1.3829
 1078SOL     OW 4653   7.827   3.592   4.264  0.6532 -0.0826 -0.6556
 1078SOL    HW1 4654   7.833   3.688   4.267 -1.8992  0.1947 -1.6363
 1078SOL    HW2 4655   7.809   3.566   4.354  2.1496  0.2457 -0.2346
 1079SOL     OW 4656   6.268   7.711   7.272 -0.0416  0.0299 -0.3672
 1079SOL    HW1 4657   6.336   7.644   7.267 -1.1448 -1.1997  0.4658
 1079SOL    HW2 4658   6.239   7.710   7.363 -0.6220  1.1168 -0.5192
 1080SOL     OW 4659   7.647   6.029   7.261 -0.4977  0.5300 -0.2031
 1080SOL    HW1 4660   7.705   6.061   7.330 -2.9048  0.1712  2.1436
 1080SOL    HW2 4661   7.599   6.106   7.232 -0.0434  0.5379 -0.9646
 1081SOL     OW 4662   5.836   2.858   0.176  0.7741 -0.2231 -0.3838
 1081SOL    HW1 4663   5.814   2.824   0.090  0.0676 -1.3502  0.2154
 1081SOL    HW2 4664   5.894   2.792   0.214 -0.1458 -0.5002  0.5777
 1082SOL     OW 4665   0.794   5.809   6.065 -0.2978  0.2172  0.5515
 1082SOL    HW1 4666   0.768   5.900   6.079  1.3776  1.1983 -1.9944
 1082SOL    HW2 4667   0.754   5.785   5.982 -0.1232 -1.1391  0.8331
 1083SOL     OW 4668   6.565   2.331   6.076  0.3195  0.2083 -0.0960
 1083SOL    HW1 4669   6.538   2.302   6.164  0.6042 -4.1511 -1.2045
 1083SOL    HW2 4670   6.488   2.377   6.042 -0.3086  0.7471  1.8852
 1084SOL     OW 4671   7.552   6.671   2.704 -0.6176  0.2075 -0.3059
 1084SOL    HW1 4672   7.579   6.579   2.703  0.4742  0.4748  0.9701
 1084SOL    HW2 4673   7.521   6.688   2.615  0.7145 -0.9367 -1.0293
 1085SOL     OW 4674   0.115   7.098   1.563  0.7248 -0.0702  0.5967
 1085SOL    HW1 4675   0.188   7.160   1.565  0.2999  0.4563  0.0999
 1085SOL    HW2 4676   0.129   7.047   1.483 -0.9237  1.8898 -1.0581
 1086SOL     OW 4677   5.182   0.943   3.943 -0.2388 -0.1167  0.4327
 1086SOL    HW1 4678   5.134   0.978   4.018  1.7630  0.1228  1.6853
 1086SOL    HW2 4679   5.153   0.852   3.937  0.2964 -0.4505  2.1919
 1087SOL     OW 4680   7.963   5.408   3.518 -0.3945  0.1747 -0.7710
 1087SOL    HW1 4681   7.901   5.475   3.489 -1.2483 -0.8382 -1.3571
 1087SOL    HW2 4682   8.021   5.395   3.443  0.8999  1.4844 -0.0506
 1088SOL     OW 4683   2.935   7.831   2.511 -0.3666  0.1762 -0.1307
 1088SOL    HW1 4684   2.918   7.876   2.594 -1.9358 -1.5015  0.5383
 1088SOL    HW2 4685   2.903   7.891   2.444  1.8903  2.0275  0.3232
 1089SOL     OW 4686   6.530   4.472   1.929 -0.4518 -0.2368  0.6484
 1089SOL    HW1 4687   6.621   4.454   1.904 -1.0728 -0.9532 -1.3411
 1089SOL    HW2 4688   6.512   4.411   2.000 -0.0798 -1.8890 -0.6066
 1090SOL     OW 4689   4.366   2.223   7.604 -0.0340 -0.0288 -0.1490
 1090SOL    HW1 4690   4.398   2.143   7.647  0.4988  0.2566 -0.0040
 1090SOL    HW2 4691   4.272   2.210   7.596 -0.2529  0.1362  1.6298
 1091SOL     OW 4692   2.116   6.063   4.889  0.7948 -0.6412  0.2794
 1091SOL    HW1 4693   2.100   6.085   4.980 -1.1780  0.9303 -0.3884
 1091SOL    HW2 4694   2.164   6.138   4.854  3.3653 -2.0950  0.4219
 1092SOL     OW 4695   0.177   6.430   1.321  0.6491  0.4086  0.1604
 1092SOL    HW1 4696   0.134   6.513   1.343  1.1546  0.5785  0.5372
 1092SOL    HW2 4697   0.197   6.390   1.405 -3.5456 -2.2914  0.1922
 1093SOL     OW 4698   0.667   3.830   3.550 -0.2726 -0.2370 -0.4459
 1093SOL    HW1 4699   0.688   3.786   3.633 -2.2119 -1.3454 -0.4675
 1093SOL    HW2 4700   0.635   3.916   3.577  0.8380  0.1187 -0.1993
 1094SOL     OW 4701   2.179   1.081   8.041  0.1158  0.0570 -0.0144
 1094SOL    HW1 4702   2.255   1.059   8.095 -0.5708 -0.0147  0.9351
 1094SOL    HW2 4703   2.216   1.097   7.954  1.6070  2.7744  0.9945
 1095SOL     OW 4704   0.192   7.271   5.578  0.2144 -0.5380  0.1753
 1095SOL    HW1 4705   0.278   7.289   5.616  0.0201  2.0270 -0.4132
 1095SOL    HW2 4706   0.131   7.279   5.650  0.1855  1.0751  0.0290
 1096SOL     OW 4707   0.315   3.599   0.893  0.2216  0.0766  0.0397
 1096SOL    HW1 4708   0.256   3.630   0.962 -0.0248 -0.4194  0.0536
 1096SOL    HW2 4709   0.385   3.664   0.891 -1.1418  1.5736 -1.0937
 1097SOL     OW 4710   0.667   3.829   7.783 -0.4180 -0.4468 -1.0112
 1097SOL    HW1 4711   0.638   3.769   7.715 -0.7953  0.0821 -1.3247
 1097SOL    HW2 4712   0.600   3.897   7.785  0.4076  0.3938 -1.2166
 1098SOL     OW 4713   6.673   5.284   2.105 -0.3759  0.0287 -0.1894
 1098SOL    HW1 4714   6.654   5.250   2.192 -3.2305 -1.8398 -1.3785
 1098SOL    HW2 4715   6.635   5.372   2.105 -1.6626 -0.4980  0.0809
 1099SOL     OW 4716   2.660   6.154   2.960  0.0876  0.0700 -0.1475
 1099SOL    HW1 4717   2.743   6.142   2.915 -0.8217 -0.4030 -1.7835
 1099SOL    HW2 4718   2.672   6.112   3.045  1.4726 -0.0475 -0.3804
 1100SOL     OW 4719   0.264   3.571   3.931 -0.0786 -0.3497 -0.6141
 1100SOL    HW1 4720   0.254   3.604   4.020  0.9969  2.2862 -1.3515
 1100SOL    HW2 4721   0.176   3.543   3.906 -0.5204 -0.5651  1.0572
 1101SOL     OW 4722   4.467   6.274   2.272 -0.1439 -0.0862 -0.4549
 1101SOL    HW1 4723   4.540   6.214   2.255 -0.7719 -1.6394  1.7960
 1101SOL    HW2 4724   4.502   6.339   2.332  0.0900  0.8337 -1.5671
 1102SOL     OW 4725   2.168   1.478   4.755  0.3258 -0.2095  0.0971
 1102SOL    HW1 4726   2.113   1.402   4.775 -0.1654  0.5553  1.8661
 1102SOL    HW2 4727   2.202   1.461   4.667 -2.4786 -0.9007 -0.9778
 1103SOL     OW 4728   1.149   3.970   6.021 -0.1804  0.0965 -0.2194
 1103SOL    HW1 4729   1.126   4.041   5.961 -0.1305 -0.0266 -0.3849
 1103SOL    HW2 4730   1.243   3.981   6.035  0.1176 -0.7907 -1.3731
 1104SOL     OW 4731   0.243   5.511   1.255  0.2016 -0.0969 -0.1411
 1104SOL    HW1 4732   0.220   5.540   1.343 -0.1321  0.0193 -0.2645
 1104SOL    HW2 4733   0.330   5.547   1.239  0.3910 -0.3784  0.2579
 1105SOL     OW 4734   2.416   0.655   1.786  0.3269 -0.0520  0.0708
 1105SOL    HW1 4735   2.499   0.670   1.741 -0.5931  1.1913 -1.3268
 1105SOL    HW2 4736   2.388   0.568   1.758  0.5388  0.0619 -0.5054
 1106SOL     OW 4737   2.376   8.004   4.810  0.2187  0.2107  0.1793
 1106SOL    HW1 4738   2.346   7.928   4.860 -1.9559  1.6689  1.2534
 1106SOL    HW2 4739   2.336   7.993   4.723 -0.2072  0.1863  0.3743
 1107SOL     OW 4740   3.596   3.023   0.174 -0.1802  0.2311  0.2091
 1107SOL    HW1 4741   3.535   3.088   0.140 -0.2918 -0.0013 -0.0393
 1107SOL    HW2 4742   3.561   2.939   0.144 -0.5821 -0.0220  1.3684
 1108SOL     OW 4743   2.055   6.997   4.172  0.0566  0.7762  0.0526
 1108SOL    HW1 4744   2.076   7.034   4.257  0.1710  3.7556 -1.1318
 1108SOL    HW2 4745   2.134   7.011   4.119 -0.1554 -0.6155 -0.6843
 1109SOL     OW 4746   6.323   5.543   7.343  0.1718 -0.0799  0.1579
 1109SOL    HW1 4747   6.355   5.633   7.341  0.0519 -0.0409 -0.2454
 1109SOL    HW2 4748   6.354   5.505   7.261 -1.6746  0.2773 -0.7613
 1110SOL     OW 4749   7.373   3.676   6.817 -0.3990  0.1285 -0.1342
 1110SOL    HW1 4750   7.449   3.657   6.762 -1.0558 -0.3330 -0.9113
 1110SOL    HW2 4751   7.319   3.735   6.764 -1.1331 -0.4748 -0.0818
 1111SOL     OW 4752   2.435   5.975   6.216 -0.8140  0.4709  0.3248
 1111SOL    HW1 4753   2.515   6.025   6.202 -0.7841  0.3162 -0.0865
 1111SOL    HW2 4754   2.437   5.908   6.147 -1.1875  0.3298  0.4490
 1112SOL     OW 4755   0.061   6.713   3.644 -0.0410 -0.2342 -0.0443
 1112SOL    HW1 4756   0.038   6.732   3.553 -0.7951 -1.6171 -0.1765
 1112SOL    HW2 4757   0.154   6.734   3.651 -0.1704  0.6775 -0.8952
 1113SOL     OW 4758   6.193   4.014   7.577  0.2051 -0.2639  0.2209
 1113SOL    HW1 4759   6.183   3.941   7.637  1.0975  1.2797  2.3759
 1113SOL    HW2 4760   6.239   4.081   7.628 -1.6473  2.2834 -1.2086
 1114SOL     OW 4761   1.140   7.959   2.978  0.2098 -0.1007  0.0701
 1114SOL    HW1 4762   1.149   7.865   2.996  0.5339  0.4061  3.0500
 1114SOL    HW2 4763   1.227   7.986   2.949 -0.1219 -0.8181 -1.7833
 1115SOL     OW 4764   4.246   7.357   5.570 -0.1231  1.2257  0.8749
 1115SOL    HW1 4765   4.224   7.422   5.636  1.9736  0.6945  2.2030
 1115SOL    HW2 4766   4.338   7.335   5.588 -0.1145 -0.4789 -0.9178
 1116SOL     OW 4767   1.160   5.441   1.449 -0.7328 -0.0523 -0.6199
 1116SOL    HW1 4768   1.217   5.367   1.471  1.1615  1.7873  0.9991
 1116SOL    HW2 4769   1.181   5.462   1.358  1.4767  0.7905  0.0380
 1117SOL     OW 4770   5.665   5.180   6.674 -0.5073 -0.0631 -0.5613
 1117SOL    HW1 4771   5.656   5.216   6.762  0.3572 -0.4647 -0.2939
 1117SOL    HW2 4772   5.583   5.134   6.657 -0.4347 -0.5195  0.2912
 1118SOL     OW 4773   2.262   0.207   3.222  0.5395 -0.4342 -0.3200
 1118SOL    HW1 4774   2.339   0.250   3.184  0.6739 -0.6588 -0.3018
 1118SOL    HW2 4775   2.238   0.140   3.158 -1.2496  1.3372 -1.6368
 1119SOL     OW 4776   6.381   6.962   4.825 -0.6236 -0.0937  0.5782
 1119SOL    HW1 4777   6.287   6.951   4.813 -0.4194 -0.7990 -0.5207
 1119SOL    HW2 4778   6.403   6.901   4.896 -0.6407 -1.8347 -0.8150
 1120SOL     OW 4779   1.917   4.216   0.477 -0.4784 -0.3845  0.1458
 1120SOL    HW1 4780   2.002   4.209   0.433 -1.1868  0.5434 -1.4599
 1120SOL    HW2 4781   1.865   4.144   0.439 -0.8322 -0.1070  0.1031
 1121SOL     OW 4782   6.292   4.239   3.610  0.1500 -0.2701  0.3087
 1121SOL    HW1 4783   6.197   4.242   3.598  0.2575 -0.9159 -0.8252
 1121SOL    HW2 4784   6.316   4.329   3.633 -0.6081  0.1417 -0.4735
 1122SOL     OW 4785   0.538   3.068   6.342  0.0464 -0.1384 -0.2976
 1122SOL    HW1 4786   0.553   3.079   6.248 -0.2406 -0.6915 -0.4122
 1122SOL    HW2 4787   0.608   3.118   6.383  1.6621 -1.8433 -0.8163
 1123SOL     OW 4788   0.638   6.455   5.887  0.5279  0.5278  0.7681
 1123SOL    HW1 4789   0.724   6.489   5.912  0.1079  1.6292  0.7961
 1123SOL    HW2 4790   0.657   6.383   5.827  1.4675  0.7501  0.7855
 1124SOL     OW 4791   4.825   0.756   0.188 -0.7242  0.5470 -0.3208
 1124SOL    HW1 4792   4.818   0.838   0.140  0.0906  1.4118  0.9659
 1124SOL    HW2 4793   4.736   0.736   0.215 -0.8096  1.5184  0.1497
 1125SOL     OW 4794   1.735   4.406   0.822 -0.8752 -0.3456  0.4767
 1125SOL    HW1 4795   1.800   4.344   0.789 -0.7001  0.1705 -0.1768
 1125SOL    HW2 4796   1.719   4.379   0.912 -0.2052 -0.8451  0.4506
 1126SOL     OW 4797   6.181   0.948   4.731 -0.8838 -0.0275  0.1028
 1126SOL    HW1 4798   6.206   0.857   4.745 -1.6288 -0.1511  0.6762
 1126SOL    HW2 4799   6.197   0.991   4.816 -0.7649  0.3187 -0.0927
 1127SOL     OW 4800   1.657   6.119   7.846 -0.7160  0.5123  0.3953
 1127SOL    HW1 4801   1.685   6.207   7.868  1.5098 -0.1041  0.2941
 1127SOL    HW2 4802   1.713   6.093   7.772 -2.3828 -0.4295 -0.5912
 1128SOL     OW 4803   5.745   6.748   0.262 -0.1273  0.0310 -0.0813
 1128SOL    HW1 4804   5.704   6.706   0.186  0.4101  0.1933 -0.4699
 1128SOL    HW2 4805   5.725   6.841   0.252  2.1807  0.4581 -1.5175
 1129SOL     OW 4806   5.321   8.003   4.190 -0.1859  0.3836 -0.0265
 1129SOL    HW1 4807   5.361   7.996   4.276  1.1470  0.1218 -0.6360
 1129SOL    HW2 4808   5.395   7.996   4.129 -0.9612  1.6484 -1.1604
 1130SOL     OW 4809   3.357   1.467   0.545 -0.0257 -0.8263  0.6081
 1130SOL    HW1 4810   3.428   1.524   0.576  0.8935 -2.0676  0.8736
 1130SOL    HW2 4811   3.279   1.499   0.591  0.1390  1.1664 -0.4089
 1131SOL     OW 4812   7.956   5.153   3.053  0.2119  0.0151 -0.9769
 1131SOL    HW1 4813   8.004   5.234   3.036  1.7022 -0.6185 -0.0084
 1131SOL    HW2 4814   7.881   5.180   3.105  1.5760  0.6282  0.7631
 1132SOL     OW 4815   7.412   7.501   0.809  0.3720 -0.2426 -0.2373
 1132SOL    HW1 4816   7.466   7.504   0.731  1.2369  0.4944  0.3766
 1132SOL    HW2 4817   7.469   7.464   0.877  0.2246  0.7999  0.4863
 1133SOL     OW 4818   4.772   7.362   5.524 -0.2876  0.4069 -0.3810
 1133SOL    HW1 4819   4.835   7.322   5.585 -1.5291  0.7769  1.1973
 1133SOL    HW2 4820   4.820   7.368   5.441  2.1851  1.8195  1.0546
 1134SOL     OW 4821   0.927   0.190   4.817  0.2536  0.2780  0.2521
 1134SOL    HW1 4822   0.868   0.194   4.742  2.0228  1.5248 -1.1943
 1134SOL    HW2 4823   0.968   0.103   4.811 -0.6804 -0.2012  0.6767
 1135SOL     OW 4824   3.416   0.419   3.996  0.4791 -0.0803 -0.2141
 1135SOL    HW1 4825   3.389   0.329   3.979 -1.3187 -0.0314  1.9047
 1135SOL    HW2 4826   3.415   0.460   3.909 -0.1930 -1.7075 -1.0321
 1136SOL     OW 4827   2.550   6.039   7.805  0.0992  0.1146 -0.2671
 1136SOL    HW1 4828   2.520   5.950   7.828 -0.2937  0.1776 -0.5390
 1136SOL    HW2 4829   2.597   6.028   7.723  1.4580 -0.1007  0.4993
 1137SOL     OW 4830   7.517   0.404   6.554  0.1619  0.1064 -0.1287
 1137SOL    HW1 4831   7.609   0.405   6.579 -0.0964  0.3860  0.8768
 1137SOL    HW2 4832   7.493   0.311   6.556  0.0385  0.1467  1.1706
 1138SOL     OW 4833   6.069   6.003   1.696  0.0798  0.1135  0.2187
 1138SOL    HW1 4834   5.994   5.964   1.741 -1.0791  1.1392 -0.7437
 1138SOL    HW2 4835   6.112   6.056   1.763 -0.0733 -0.4489  0.7737
 1139SOL     OW 4836   4.033   7.803   7.033 -0.1374  0.0958  0.4166
 1139SOL    HW1 4837   3.988   7.886   7.017 -0.2873  0.0857  0.7840
 1139SOL    HW2 4838   4.116   7.828   7.073  0.7663  0.1968 -1.4126
 1140SOL     OW 4839   7.162   3.516   4.933 -0.3861  0.0355 -0.3129
 1140SOL    HW1 4840   7.235   3.512   4.995  0.2200 -0.5104 -1.0435
 1140SOL    HW2 4841   7.084   3.518   4.988  0.1427 -0.4326  0.4712
 1141SOL     OW 4842   7.099   2.073   5.516 -0.0194 -0.7943  0.4357
 1141SOL    HW1 4843   7.023   2.055   5.460 -0.2231  0.0539  0.4189
 1141SOL    HW2 4844   7.160   2.118   5.458  0.7607 -2.0038  0.2899
 1142SOL     OW 4845   7.142   6.214   5.063  0.0503 -0.3417 -0.0875
 1142SOL    HW1 4846   7.090   6.262   4.998 -0.6114 -1.9331 -0.7830
 1142SOL    HW2 4847   7.225   6.261   5.066 -0.5507  0.8213 -0.7675
 1143SOL     OW 4848   3.523   3.989   1.196 -0.3601  0.0726  0.0276
 1143SOL    HW1 4849   3.440   4.035   1.209 -0.1963  0.1179  0.9906
 1143SOL    HW2 4850   3.559   4.026   1.115 -0.7531  0.8577  0.2069
 1144SOL     OW 4851   3.335   0.338   0.014 -0.5540  0.2389  0.0312
 1144SOL    HW1 4852   3.267   0.288   0.058 -2.5294  1.1305 -1.8368
 1144SOL    HW2 4853   3.297   0.425   0.003  0.5833  0.5678 -1.6962
 1145SOL     OW 4854   2.099   7.907   3.463  0.3253 -0.6518  0.5049
 1145SOL    HW1 4855   2.179   7.957   3.445  0.5183 -0.8394  0.8266
 1145SOL    HW2 4856   2.105   7.831   3.406  1.5995 -1.9486  2.2508
 1146SOL     OW 4857   0.132   0.186   0.674  0.5279  0.3515  0.4108
 1146SOL    HW1 4858   0.204   0.140   0.631  0.1613  0.2612 -0.1252
 1146SOL    HW2 4859   0.054   0.134   0.652  0.0414  1.4137 -0.5434
 1147SOL     OW 4860   2.048   6.021   4.567 -0.0049 -0.0369 -0.0887
 1147SOL    HW1 4861   1.957   5.993   4.575  0.4456 -1.2576  1.0883
 1147SOL    HW2 4862   2.044   6.116   4.576 -1.3241  0.1455 -1.8574
 1148SOL     OW 4863   3.819   1.797   6.057 -0.0835  0.2320 -0.0916
 1148SOL    HW1 4864   3.743   1.841   6.096  2.0538  2.1843  2.2773
 1148SOL    HW2 4865   3.837   1.848   5.978 -1.2951 -0.3372 -0.7499
 1149SOL     OW 4866   6.744   6.587   3.241 -0.1655 -0.2337 -0.4860
 1149SOL    HW1 4867   6.837   6.568   3.251 -0.0593 -0.0585 -1.1170
 1149SOL    HW2 4868   6.700   6.511   3.279  0.1749  0.8859  2.4058
 1150SOL     OW 4869   7.832   5.241   2.197  0.0508  0.0154 -0.7128
 1150SOL    HW1 4870   7.871   5.154   2.189  1.4740  0.6937 -1.6513
 1150SOL    HW2 4871   7.867   5.289   2.122 -0.0220  1.6441  0.2633
 1151SOL     OW 4872   0.898   0.066   3.014 -0.0653  0.1453 -0.8240
 1151SOL    HW1 4873   0.968   0.001   3.005 -1.5275 -1.4740 -0.9731
 1151SOL    HW2 4874   0.944   0.149   3.026  1.9138 -1.2668  2.6434
 1152SOL     OW 4875   6.840   3.125   1.768 -0.2011  0.0509  0.0017
 1152SOL    HW1 4876   6.870   3.084   1.687  2.2480  0.6764  0.5112
 1152SOL    HW2 4877   6.762   3.175   1.743 -0.4999 -1.1499 -1.5740
 1153SOL     OW 4878   6.125   0.635   7.466  0.2119  0.0056 -0.3984
 1153SOL    HW1 4879   6.214   0.662   7.489 -0.1947  0.3369  0.8817
 1153SOL    HW2 4880   6.109   0.674   7.380  1.3468 -0.1804 -0.7082
 1154SOL     OW 4881   1.991   2.278   4.662  0.1635 -0.2035  0.0671
 1154SOL    HW1 4882   2.005   2.270   4.568  0.0600  3.2169 -0.3559
 1154SOL    HW2 4883   2.080   2.279   4.699  0.4238  2.2686 -0.4883
 1155SOL     OW 4884   0.738   2.260   4.867  0.0360  0.3918  0.0933
 1155SOL    HW1 4885   0.685   2.338   4.885 -0.2346  0.2437 -0.0691
 1155SOL    HW2 4886   0.686   2.187   4.900 -0.6975  0.0536 -1.7191
 1156SOL     OW 4887   2.224   5.729   1.790  0.0923 -0.2472  0.0694
 1156SOL    HW1 4888   2.318   5.707   1.785  0.6157  1.4797  1.3610
 1156SOL    HW2 4889   2.195   5.726   1.699  2.0571  1.6654 -0.7237
 1157SOL     OW 4890   2.431   3.716   2.781 -0.2439 -0.6410 -0.0234
 1157SOL    HW1 4891   2.360   3.747   2.725 -1.2336 -1.7403  0.5996
 1157SOL    HW2 4892   2.505   3.774   2.760 -0.3913 -1.3315 -2.8470
 1158SOL     OW 4893   7.432   1.190   1.855 -0.0249 -0.8475  0.0895
 1158SOL    HW1 4894   7.483   1.183   1.774 -0.4633  0.8968 -0.3815
 1158SOL    HW2 4895   7.398   1.102   1.870 -0.5785 -1.0449 -2.0641
 1159SOL     OW 4896   7.555   7.283   1.336 -0.2307 -0.3064 -0.3798
 1159SOL    HW1 4897   7.545   7.375   1.359 -1.7607 -0.4946 -0.1790
 1159SOL    HW2 4898   7.490   7.268   1.268  2.3406 -0.4422 -2.9965
 1160SOL     OW 4899   7.934   0.286   5.530  0.2856 -0.7398 -0.1622
 1160SOL    HW1 4900   7.983   0.309   5.609 -0.6647  0.3865  0.1136
 1160SOL    HW2 4901   7.976   0.337   5.461 -1.5678  1.6700  0.3812
 1161SOL     OW 4902   0.820   5.777   2.544  0.2510 -0.3599  0.2383
 1161SOL    HW1 4903   0.830   5.719   2.469  0.5556 -0.4488  0.3442
 1161SOL    HW2 4904   0.896   5.836   2.539  0.4679 -0.5905  0.6682
 1162SOL     OW 4905   3.411   7.679   2.790 -0.2798  0.6617  0.2333
 1162SOL    HW1 4906   3.476   7.744   2.819  0.7294  0.3682 -1.2403
 1162SOL    HW2 4907   3.331   7.703   2.836  0.4555  2.0549  0.8502
 1163SOL     OW 4908   4.810   5.560   3.111 -0.1788 -0.2016 -0.1783
 1163SOL    HW1 4909   4.812   5.540   3.205 -0.9167 -1.8615 -0.4674
 1163SOL    HW2 4910   4.898   5.536   3.080  0.7473  2.2069  0.3657
 1164SOL     OW 4911   7.752   5.828   7.084 -0.1284  0.4350 -0.4311
 1164SOL    HW1 4912   7.817   5.783   7.138  1.1535  1.4768 -1.0676
 1164SOL    HW2 4913   7.716   5.896   7.141 -1.3491 -0.7145  0.2119
 1165SOL     OW 4914   4.768   3.761   0.706 -0.1762 -0.3165 -0.1062
 1165SOL    HW1 4915   4.767   3.853   0.676 -0.4548 -0.3405 -0.1704
 1165SOL    HW2 4916   4.860   3.735   0.697 -0.0703 -0.0061  0.0286
 1166SOL     OW 4917   7.671   0.928   3.152  0.0794  0.1606  0.5993
 1166SOL    HW1 4918   7.582   0.926   3.187 -0.2409  0.5028 -0.1621
 1166SOL    HW2 4919   7.716   0.995   3.203  0.3801 -1.0964  2.0553
 1167SOL     OW 4920   3.797   7.494   6.604  0.3789 -0.0713  0.5527
 1167SOL    HW1 4921   3.751   7.423   6.648 -1.2196 -0.0167 -0.9099
 1167SOL    HW2 4922   3.774   7.573   6.653 -0.7448 -0.1139  0.1189
 1168SOL     OW 4923   7.126   7.714   3.534 -0.2296 -0.0208 -0.1560
 1168SOL    HW1 4924   7.212   7.733   3.497  0.3768 -0.5688  0.9246
 1168SOL    HW2 4925   7.073   7.790   3.510  1.2871  1.6318  1.4344
 1169SOL     OW 4926   7.447   8.018   6.240 -0.5421  0.4811  0.0638
 1169SOL    HW1 4927   7.424   8.104   6.205 -2.1904  0.2782  0.5712
 1169SOL    HW2 4928   7.409   7.956   6.178  0.7114  0.1011 -0.3430
 1170SOL     OW 4929   0.006   3.841   4.483 -0.1292  0.0971 -0.3579
 1170SOL    HW1 4930  -0.079   3.857   4.441  0.6261  2.4784 -1.1371
 1170SOL    HW2 4931  -0.008   3.867   4.574 -0.3376  0.1945 -0.4150
 1171SOL     OW 4932   1.819   6.504   0.573  0.2165  0.1485  0.1138
 1171SOL    HW1 4933   1.778   6.550   0.647 -1.9464 -0.4978 -0.6092
 1171SOL    HW2 4934   1.826   6.413   0.601 -0.9630 -0.1742 -0.5784
 1172SOL     OW 4935   6.089   2.001   0.283  0.1202 -0.1092  0.1891
 1172SOL    HW1 4936   6.013   1.958   0.243  0.2850 -1.4709  1.2575
 1172SOL    HW2 4937   6.164   1.951   0.251  0.2506 -1.2877  2.1799
 1173SOL     OW 4938   5.202   2.388   7.012  0.5203  0.4179 -0.1064
 1173SOL    HW1 4939   5.199   2.484   7.012 -1.3500  0.4485  1.9355
 1173SOL    HW2 4940   5.260   2.365   6.940  0.4923  3.0708 -1.0637
 1174SOL     OW 4941   8.024   6.422   0.761 -0.6758  0.1654 -0.2869
 1174SOL    HW1 4942   8.011   6.510   0.726 -0.5909  0.5689  0.6509
 1174SOL    HW2 4943   7.938   6.397   0.796 -0.2872  0.6520  1.1073
 1175SOL     OW 4944   7.256   6.804   0.384 -0.4964 -0.1284  0.9299
 1175SOL    HW1 4945   7.304   6.794   0.466 -1.5050  0.8219  1.6670
 1175SOL    HW2 4946   7.313   6.765   0.318  0.1202 -1.3796  2.1376
 1176SOL     OW 4947   4.694   0.395   2.631  0.3268 -0.7086 -0.5054
 1176SOL    HW1 4948   4.643   0.417   2.709 -1.2472 -0.7524 -1.4739
 1176SOL    HW2 4949   4.745   0.318   2.656  1.0584  0.2113  0.9487
 1177SOL     OW 4950   3.310   4.631   1.168  0.0731  0.9017 -0.4428
 1177SOL    HW1 4951   3.363   4.589   1.235 -1.3574  0.3808  0.4133
 1177SOL    HW2 4952   3.339   4.593   1.086  1.0968  0.7336 -0.0092
 1178SOL     OW 4953   0.044   5.050   6.111 -0.2924 -0.5445 -0.3272
 1178SOL    HW1 4954   0.013   4.966   6.077 -0.8054 -0.2609 -0.5758
 1178SOL    HW2 4955  -0.030   5.110   6.098 -0.8020 -0.5792  1.9763
 1179SOL     OW 4956   6.792   3.396   2.357 -0.2148  0.7933 -0.3519
 1179SOL    HW1 4957   6.780   3.388   2.451  0.0029  0.9321 -0.3111
 1179SOL    HW2 4958   6.741   3.325   2.320 -1.0049  1.2601 -0.1741
 1180SOL     OW 4959   7.412   3.570   1.109  0.3582  0.0093  0.5038
 1180SOL    HW1 4960   7.386   3.551   1.199 -1.4743  0.4864  0.1111
 1180SOL    HW2 4961   7.340   3.535   1.056  0.7952  0.8752 -0.6888
 1181SOL     OW 4962   2.559   6.541   3.358 -0.2085 -0.0954  0.4136
 1181SOL    HW1 4963   2.570   6.471   3.422  1.9310 -0.3437 -0.1403
 1181SOL    HW2 4964   2.618   6.610   3.387 -2.6291  1.7841  1.2316
 1182SOL     OW 4965   1.442   4.302   0.981 -0.1321  0.0948 -0.3097
 1182SOL    HW1 4966   1.384   4.347   1.043 -0.7600 -0.5659 -0.4047
 1182SOL    HW2 4967   1.411   4.328   0.895  0.1358  0.2626 -0.3563
 1183SOL     OW 4968   6.384   1.112   4.420  0.4888 -0.6860 -0.1057
 1183SOL    HW1 4969   6.294   1.124   4.390  0.0146  1.2275  1.7973
 1183SOL    HW2 4970   6.413   1.201   4.442  1.7038 -1.5927  2.3046
 1184SOL     OW 4971   2.010   6.877   7.756 -0.1603  0.1273 -0.3395
 1184SOL    HW1 4972   2.091   6.904   7.800 -0.1445 -1.4771  0.7024
 1184SOL    HW2 4973   1.998   6.942   7.688  1.7381  0.7078 -0.2013
 1185SOL     OW 4974   1.460   1.066   6.958  0.5790 -0.3407  0.3454
 1185SOL    HW1 4975   1.513   1.143   6.975 -1.3260  0.9250  0.8510
 1185SOL    HW2 4976   1.393   1.095   6.896 -0.3307 -1.4935  0.7423
 1186SOL     OW 4977   7.360   0.943   7.287  0.0635  0.4667  0.6264
 1186SOL    HW1 4978   7.320   0.998   7.355 -1.5641  0.4388 -0.2664
 1186SOL    HW2 4979   7.303   0.867   7.281  0.6810  0.0556 -0.1672
 1187SOL     OW 4980   2.466   2.736   2.416 -0.9090 -0.1547  0.1927
 1187SOL    HW1 4981   2.402   2.672   2.450  1.0467 -2.9377 -0.9951
 1187SOL    HW2 4982   2.529   2.746   2.487 -0.1108 -1.2334 -0.3286
 1188SOL     OW 4983   6.916   7.549   1.496  0.4074 -0.2082 -0.0284
 1188SOL    HW1 4984   6.829   7.566   1.532  0.4052 -0.4312  0.0724
 1188SOL    HW2 4985   6.933   7.457   1.518  2.3956  0.8591  3.6044
 1189SOL     OW 4986   2.934   4.241   0.475 -0.4723  0.0056 -0.7115
 1189SOL    HW1 4987   2.852   4.276   0.509  0.3261  2.1350 -0.8364
 1189SOL    HW2 4988   2.910   4.205   0.389 -1.3022  0.4735 -0.6900
 1190SOL     OW 4989   6.738   0.828   2.065 -0.1534  0.3545  0.2517
 1190SOL    HW1 4990   6.646   0.816   2.089  0.3436 -0.1490  2.0498
 1190SOL    HW2 4991   6.787   0.790   2.138  1.4992  2.1089  0.1284
 1191SOL     OW 4992   7.018   0.274   6.103  0.1531  0.2686 -0.3917
 1191SOL    HW1 4993   7.076   0.327   6.049 -0.4562  1.7152  0.3271
 1191SOL    HW2 4994   6.932   0.282   6.062 -0.6470  2.6120  1.5065
 1192SOL     OW 4995   2.590   1.854   5.124  0.4896 -0.4757  0.6320
 1192SOL    HW1 4996   2.625   1.898   5.202  0.7282 -0.5375  0.5608
 1192SOL    HW2 4997   2.523   1.795   5.158  0.8599 -0.7879  0.8381
 1193SOL     OW 4998   0.262   5.142   3.064 -0.5999 -0.4812  0.4110
 1193SOL    HW1 4999   0.285   5.131   2.972 -0.1950 -0.0848  0.4609
 1193SOL    HW2 5000   0.218   5.227   3.067 -1.4760 -0.9267  0.4280
 1194SOL     OW 5001   0.548   1.223   1.530  0.0438  0.2014  0.4331
 1194SOL    HW1 5002   0.533   1.297   1.590  0.9867 -0.1451  1.1121
 1194SOL    HW2 5003   0.542   1.146   1.585 -1.6755 -0.3171 -0.4066
 1195SOL     OW 5004   0.317   2.258   3.721  0.0052  0.4957  0.3681
 1195SOL    HW1 5005   0.312   2.233   3.813 -0.2494  0.8194  0.4459
 1195SOL    HW2 5006   0.316   2.354   3.722  0.8504  0.5127  0.0710
 1196SOL     OW 5007   5.945   6.918   2.598 -0.1934  0.1678  0.6702
 1196SOL    HW1 5008   5.969   7.006   2.628 -0.5520  0.2709  0.6616
 1196SOL    HW2 5009   6.027   6.880   2.566  0.4785 -0.4128  2.9282
 1197SOL     OW 5010   0.887   2.978   3.822  0.7706 -0.2844  0.0690
 1197SOL    HW1 5011   0.919   3.065   3.796  0.6341 -0.1423  0.3730
 1197SOL    HW2 5012   0.869   2.934   3.739 -1.9779  1.0176 -0.1256
 1198SOL     OW 5013   3.015   7.130   4.946  0.2877  0.1585  0.4920
 1198SOL    HW1 5014   3.023   7.193   4.873  1.3776 -0.2358  0.2586
 1198SOL    HW2 5015   2.960   7.060   4.911  1.3714 -0.3650 -0.2046
 1199SOL     OW 5016   6.294   6.959   1.177  0.2917 -0.1137  0.8027
 1199SOL    HW1 5017   6.376   6.939   1.221  0.2466  1.1521  1.4724
 1199SOL    HW2 5018   6.242   7.005   1.242  0.4805  2.4008 -0.7093
 1200SOL     OW 5019   0.461   2.891   5.830  0.4445  0.3071 -0.2896
 1200SOL    HW1 5020   0.473   2.882   5.924 -0.9643  0.0067 -0.1221
 1200SOL    HW2 5021   0.550   2.892   5.795  0.9763 -2.1139  0.8079
 1201SOL     OW 5022   0.281   4.330   0.329  0.0209  0.0965  0.1563
 1201SOL    HW1 5023   0.260   4.329   0.235  0.1977 -0.4424  0.1149
 1201SOL    HW2 5024   0.200   4.301   0.372 -0.7764  2.4194  0.3515
 1202SOL     OW 5025   0.843   0.814   3.480  0.3993  0.0429 -0.5139
 1202SOL    HW1 5026   0.828   0.841   3.389 -1.8516 -2.0675 -0.8616
 1202SOL    HW2 5027   0.855   0.720   3.475 -1.1764 -0.3205  1.5129
 1203SOL     OW 5028   0.052   4.236   4.507 -0.3413  0.5102 -0.3025
 1203SOL    HW1 5029   0.034   4.153   4.462 -0.0877  0.6317 -0.6379
 1203SOL    HW2 5030   0.147   4.235   4.520 -0.5788 -0.2636  1.7013
 1204SOL     OW 5031   7.479   7.482   0.036 -0.2894  0.2881 -0.0985
 1204SOL    HW1 5032   7.517   7.394   0.045  0.8795  0.5953 -1.5511
 1204SOL    HW2 5033   7.514   7.515  -0.047 -2.6097  1.2085 -0.8100
 1205SOL     OW 5034   4.959   6.310   4.370 -0.4053 -0.0102 -0.1870
 1205SOL    HW1 5035   4.894   6.283   4.434 -0.7137  1.2427  0.0567
 1205SOL    HW2 5036   5.028   6.243   4.376 -1.1336 -0.7256  0.3602
 1206SOL     OW 5037   2.362   0.153   6.311  0.6980 -0.0522 -0.2184
 1206SOL    HW1 5038   2.341   0.152   6.217 -1.0829 -1.5817  0.1433
 1206SOL    HW2 5039   2.304   0.220   6.348  2.6007  1.7898 -0.3887
 1207SOL     OW 5040   1.525   2.052   4.958 -0.2650  0.4051  0.0239
 1207SOL    HW1 5041   1.447   1.997   4.964  0.2283 -0.1833  2.7730
 1207SOL    HW2 5042   1.586   2.001   4.905 -0.2101 -1.2732  1.6083
 1208SOL     OW 5043   5.955   7.001   7.046 -0.0803 -0.1060  0.0545
 1208SOL    HW1 5044   6.007   6.954   6.980 -0.6562  0.0365 -0.5174
 1208SOL    HW2 5045   5.963   6.948   7.125  0.3393 -0.4701 -0.2240
 1209SOL     OW 5046   6.344   4.317   7.047  0.0546 -0.0038  0.1820
 1209SOL    HW1 5047   6.317   4.299   7.138 -1.9645 -0.9187 -0.5280
 1209SOL    HW2 5048   6.333   4.412   7.038 -1.3373 -0.1099  0.4653
 1210SOL     OW 5049   6.707   1.212   1.735  0.0327 -0.1178  0.3197
 1210SOL    HW1 5050   6.619   1.184   1.710 -0.4962  1.8768 -0.2799
 1210SOL    HW2 5051   6.702   1.226   1.829 -0.3120  0.0260  0.2827
 1211SOL     OW 5052   4.637   3.950   2.486 -0.2890  0.0976 -0.3550
 1211SOL    HW1 5053   4.657   3.974   2.395 -1.0417 -2.4366 -1.2861
 1211SOL    HW2 5054   4.649   3.855   2.489  0.5487  0.2049  2.4722
 1212SOL     OW 5055   1.226   7.961   1.941 -0.5912 -0.1305  0.4204
 1212SOL    HW1 5056   1.283   7.970   2.017 -0.2570 -1.0701  0.2953
 1212SOL    HW2 5057   1.176   8.043   1.938  1.0901  0.9565  0.2544
 1213SOL     OW 5058   5.579   2.101   6.373  0.0526  0.0469  0.0321
 1213SOL    HW1 5059   5.499   2.154   6.366 -0.5149 -0.7299  0.4494
 1213SOL    HW2 5060   5.549   2.011   6.359  1.0634 -0.1439 -1.0229
 1214SOL     OW 5061   1.470   4.938   4.351  0.2035 -0.4374 -0.3453
 1214SOL    HW1 5062   1.516   4.955   4.434 -0.7971  2.2713 -0.2281
 1214SOL    HW2 5063   1.416   4.862   4.369  1.0233 -0.7348  1.0578
 1215SOL     OW 5064   1.081   0.723   4.552  0.6332 -0.3589  0.3563
 1215SOL    HW1 5065   1.070   0.794   4.616  0.5514 -0.6577  0.6753
 1215SOL    HW2 5066   1.002   0.670   4.561  1.8808 -2.0756  2.1035
 1216SOL     OW 5067   5.552   7.087   8.010 -0.3519  0.2138 -0.3869
 1216SOL    HW1 5068   5.503   7.165   7.984 -0.0473  0.8231  0.7933
 1216SOL    HW2 5069   5.632   7.091   7.958 -0.4865  0.4970 -0.5761
 1217SOL     OW 5070   7.811   2.671   4.394  0.0625  0.0931 -0.3006
 1217SOL    HW1 5071   7.866   2.749   4.402 -1.2709  1.2784 -1.9431
 1217SOL    HW2 5072   7.824   2.623   4.476  0.2826  2.4664  1.1259
 1218SOL     OW 5073   7.241   7.757   7.508  0.1169 -0.5178  0.1844
 1218SOL    HW1 5074   7.290   7.691   7.458 -0.7341 -0.4678 -0.7561
 1218SOL    HW2 5075   7.305   7.794   7.569  0.9524 -1.2411 -0.2327
 1219SOL     OW 5076   2.803   6.408   7.651 -0.2278 -0.3226 -0.4704
 1219SOL    HW1 5077   2.780   6.455   7.570 -1.0731 -1.0403 -0.6734
 1219SOL    HW2 5078   2.719   6.376   7.684  0.0555  0.2948  0.9211
 1220SOL     OW 5079   5.159   4.000   2.060  0.3291  1.2573 -0.4571
 1220SOL    HW1 5080   5.119   4.079   2.023 -2.7592 -0.1989 -0.5300
 1220SOL    HW2 5081   5.227   3.976   1.998 -1.7673  1.3516 -2.9748
 1221SOL     OW 5082   2.016   5.147   6.701  0.2341  0.3318 -0.5979
 1221SOL    HW1 5083   1.964   5.180   6.627 -2.4153  1.3014  1.5513
 1221SOL    HW2 5084   1.969   5.069   6.730  1.6733 -0.4767 -0.3522
 1222SOL     OW 5085   0.138   1.000   3.186 -0.0648 -0.9822 -0.4634
 1222SOL    HW1 5086   0.204   0.962   3.127  0.7754 -0.6873  0.2760
 1222SOL    HW2 5087   0.082   1.052   3.128 -0.0999 -1.8085 -1.2065
 1223SOL     OW 5088   1.338   2.564   7.488 -0.5054 -0.1374 -0.0860
 1223SOL    HW1 5089   1.433   2.566   7.475 -0.8143  0.0441 -2.9912
 1223SOL    HW2 5090   1.320   2.472   7.510  0.2218 -0.4860 -0.8647
 1224SOL     OW 5091   7.229   2.124   4.078  0.1173 -0.3599  0.1056
 1224SOL    HW1 5092   7.160   2.062   4.055  0.1490  0.3048 -1.9754
 1224SOL    HW2 5093   7.228   2.188   4.007  2.1065  0.3379  0.6508
 1225SOL     OW 5094   0.115   5.223   5.688  0.3277  0.4364  0.6494
 1225SOL    HW1 5095   0.120   5.133   5.658  1.6216  0.9459 -0.7874
 1225SOL    HW2 5096   0.067   5.269   5.620  0.5196  1.0133  0.8942
 1226SOL     OW 5097   1.985   1.232   4.802  0.1404  0.2746 -0.0093
 1226SOL    HW1 5098   1.923   1.226   4.875  0.7355  2.7101  0.7784
 1226SOL    HW2 5099   2.058   1.176   4.827 -0.6448 -0.6795  0.1893
 1227SOL     OW 5100   6.441   4.178   4.157 -0.0233 -0.2210 -0.4634
 1227SOL    HW1 5101   6.390   4.103   4.125  0.2329  0.2201 -1.9775
 1227SOL    HW2 5102   6.529   4.143   4.172 -0.5888 -0.8694  1.6780
 1228SOL     OW 5103   7.905   4.003   2.655 -0.4625  0.4915 -0.2623
 1228SOL    HW1 5104   7.839   3.992   2.723  0.0580 -2.5069 -0.1330
 1228SOL    HW2 5105   7.982   4.036   2.701 -1.0835  1.6635 -0.0138
 1229SOL     OW 5106   2.013   1.109   1.069 -0.3609  0.6526 -0.0397
 1229SOL    HW1 5107   1.934   1.062   1.041 -0.5345  1.3393 -0.7371
 1229SOL    HW2 5108   2.085   1.053   1.042 -0.5172  1.3354 -2.0197
 1230SOL     OW 5109   7.779   4.084   1.269 -0.3232  0.1059 -0.3144
 1230SOL    HW1 5110   7.849   4.111   1.328  1.0995 -1.2940 -1.2690
 1230SOL    HW2 5111   7.709   4.055   1.326  0.7782 -0.6376  0.6990
 1231SOL     OW 5112   5.901   5.419   5.771 -0.2820  0.3704 -0.2438
 1231SOL    HW1 5113   5.951   5.346   5.807 -1.7040  0.1768  1.4813
 1231SOL    HW2 5114   5.854   5.382   5.696  0.6861  0.1053 -0.7414
 1232SOL     OW 5115   4.449   2.240   6.082  0.0620  0.2952  0.1615
 1232SOL    HW1 5116   4.413   2.266   5.997  2.2059  0.0332 -0.9153
 1232SOL    HW2 5117   4.386   2.176   6.116 -2.2408  2.4158  0.1084
 1233SOL     OW 5118   1.542   0.141   4.488 -0.1026  1.0832 -0.4741
 1233SOL    HW1 5119   1.497   0.097   4.560  0.3622  0.6235 -0.4540
 1233SOL    HW2 5120   1.491   0.120   4.410 -0.4885  1.4078 -0.3157
 1234SOL     OW 5121   4.095   6.666   5.791  0.0804  0.1856 -0.5969
 1234SOL    HW1 5122   4.074   6.756   5.816  0.0729 -0.2444  1.0176
 1234SOL    HW2 5123   4.146   6.632   5.864  1.5703 -0.5922 -1.9504
 1235SOL     OW 5124   5.272   1.306   5.227  0.2083  0.1730 -0.0052
 1235SOL    HW1 5125   5.196   1.299   5.285  0.4996 -0.4485  0.3051
 1235SOL    HW2 5126   5.238   1.353   5.150 -0.5478 -0.2843  0.0333
 1236SOL     OW 5127   7.322   2.728   2.991  0.4471  0.8449 -0.0313
 1236SOL    HW1 5128   7.364   2.648   3.022 -1.1400 -0.0674 -0.1160
 1236SOL    HW2 5129   7.379   2.760   2.920  0.1433 -1.3025 -1.3283
 1237SOL     OW 5130   2.277   0.307   7.003 -0.9132 -0.1773 -0.1749
 1237SOL    HW1 5131   2.309   0.286   6.915  0.8151  1.2117  0.0589
 1237SOL    HW2 5132   2.306   0.234   7.057  1.6546  0.7818 -0.0755
 1238SOL     OW 5133   1.112   7.551   5.176 -0.1235  0.1641 -0.1230
 1238SOL    HW1 5134   1.118   7.486   5.246 -1.5751 -2.1286 -1.9868
 1238SOL    HW2 5135   1.053   7.618   5.210  1.0984  0.3692  1.7063
 1239SOL     OW 5136   0.134   2.244   7.780 -0.2680  0.1734  0.7349
 1239SOL    HW1 5137   0.127   2.265   7.873 -1.1414  0.4602  0.6070
 1239SOL    HW2 5138   0.058   2.285   7.740 -0.3855 -0.7031  0.0240
 1240SOL     OW 5139   1.938   6.605   2.045  0.3396  0.0109  0.1183
 1240SOL    HW1 5140   1.913   6.513   2.054  0.5562 -0.0415  0.1857
 1240SOL    HW2 5141   1.990   6.608   1.965  0.9426 -0.0568  0.4988
 1241SOL     OW 5142   1.303   4.261   2.208 -0.2271 -0.1508  0.3826
 1241SOL    HW1 5143   1.374   4.207   2.174 -1.4711 -1.5542 -0.1084
 1241SOL    HW2 5144   1.339   4.349   2.210  0.7499 -0.4147 -2.1477
 1242SOL     OW 5145   2.602   2.583   4.621 -0.1967 -0.1108 -0.3734
 1242SOL    HW1 5146   2.527   2.524   4.614 -1.3663  1.3331 -0.3703
 1242SOL    HW2 5147   2.670   2.530   4.662 -0.6847 -1.9228 -1.7627
 1243SOL     OW 5148   0.960   4.950   6.882 -0.4801 -0.4145  0.0497
 1243SOL    HW1 5149   1.009   5.032   6.874 -1.0640 -0.0980 -0.4915
 1243SOL    HW2 5150   1.001   4.904   6.954 -1.0402  1.0080  1.3300
 1244SOL     OW 5151   7.750   2.164   6.129  0.1552 -0.4053 -0.1950
 1244SOL    HW1 5152   7.698   2.085   6.111  1.4424 -1.0388 -1.2676
 1244SOL    HW2 5153   7.826   2.132   6.178  1.0362  0.0409 -1.2312
 1245SOL     OW 5154   1.416   6.211   4.566  0.3315 -0.0487  0.4068
 1245SOL    HW1 5155   1.356   6.206   4.640  1.4844 -2.6466  1.2820
 1245SOL    HW2 5156   1.491   6.157   4.593  2.0582  1.2544 -1.5296
 1246SOL     OW 5157   2.462   3.775   8.014 -0.0893  0.2530 -0.0832
 1246SOL    HW1 5158   2.482   3.834   7.942  1.0416 -0.0882 -0.0808
 1246SOL    HW2 5159   2.403   3.824   8.071  0.5543  1.2586 -0.2556
 1247SOL     OW 5160   1.350   1.351   4.127 -0.0290  0.0718 -0.3308
 1247SOL    HW1 5161   1.370   1.260   4.147  0.4371  0.1989 -0.2190
 1247SOL    HW2 5162   1.255   1.357   4.139 -0.0648 -0.3997 -0.3483
 1248SOL     OW 5163   3.406   1.028   3.044  0.2604  0.0525 -0.4866
 1248SOL    HW1 5164   3.359   0.974   2.981  0.9033 -1.7152  0.4896
 1248SOL    HW2 5165   3.422   0.970   3.118  0.6043  1.7300  0.7974
 1249SOL     OW 5166   0.058   4.461   1.722 -0.2015  0.3979  0.0990
 1249SOL    HW1 5167  -0.020   4.471   1.667 -0.1460  1.1830  0.1606
 1249SOL    HW2 5168   0.025   4.440   1.809 -0.2716 -1.8066 -0.4086
 1250SOL     OW 5169   7.212   3.892   5.191 -0.1388  0.0342 -0.0776
 1250SOL    HW1 5170   7.271   3.819   5.210  0.6849  0.9704  1.1523
 1250SOL    HW2 5171   7.271   3.965   5.169 -0.9338  0.4248 -1.0135
 1251SOL     OW 5172   1.413   0.402   1.737  0.0690  0.2305 -0.1462
 1251SOL    HW1 5173   1.482   0.391   1.672  2.6238 -0.1179  2.4335
 1251SOL    HW2 5174   1.360   0.474   1.704 -0.9406 -2.0727 -4.2514
 1252SOL     OW 5175   3.459   0.347   6.080 -0.1608 -0.0096 -0.0566
 1252SOL    HW1 5176   3.438   0.258   6.054  0.4338 -0.1953  0.0869
 1252SOL    HW2 5177   3.536   0.370   6.028  0.0647  0.1911  0.3584
 1253SOL     OW 5178   5.092   4.317   6.290 -0.2790 -0.7390  0.1367
 1253SOL    HW1 5179   5.185   4.333   6.276 -0.2826 -0.1252  0.7511
 1253SOL    HW2 5180   5.049   4.394   6.252 -0.4835 -0.6292  0.5903
 1254SOL     OW 5181   5.233   7.145   3.477 -0.1741  0.0107  0.5446
 1254SOL    HW1 5182   5.215   7.238   3.489 -0.6928  0.0553 -0.4690
 1254SOL    HW2 5183   5.152   7.110   3.439  0.3317 -0.6582  0.0660
 1255SOL     OW 5184   3.917   0.936   2.005 -0.1311 -0.0392  0.2810
 1255SOL    HW1 5185   3.939   0.979   1.922 -1.3294  2.3011  1.0948
 1255SOL    HW2 5186   3.935   1.002   2.071 -0.0888 -1.5532  1.8418
 1256SOL     OW 5187   3.015   6.835   7.818  0.1797  0.1599 -0.4734
 1256SOL    HW1 5188   3.067   6.915   7.826 -1.2279  0.9128  1.7027
 1256SOL    HW2 5189   2.942   6.859   7.761 -1.8526  1.4329  2.4233
 1257SOL     OW 5190   1.817   7.009   5.831 -0.0852 -0.4627 -0.1688
 1257SOL    HW1 5191   1.767   7.071   5.778  0.8283 -0.3877 -0.9593
 1257SOL    HW2 5192   1.768   6.927   5.823  0.7172 -0.8023 -2.2433
 1258SOL     OW 5193   1.985   3.091   5.863  0.1962  0.4919 -0.1837
 1258SOL    HW1 5194   2.063   3.055   5.906  1.0954  1.0439 -1.3039
 1258SOL    HW2 5195   1.936   3.014   5.832  1.1479  0.1728 -0.9302
 1259SOL     OW 5196   1.566   1.227   3.367  0.1135  0.4251  0.2544
 1259SOL    HW1 5197   1.578   1.183   3.283  1.7391  0.4488  0.4373
 1259SOL    HW2 5198   1.549   1.156   3.430  0.3072  0.2763  0.1392
 1260SOL     OW 5199   7.700   3.102   3.079 -0.4992 -0.4973 -0.0521
 1260SOL    HW1 5200   7.607   3.114   3.062 -0.2668 -0.2467 -1.2374
 1260SOL    HW2 5201   7.741   3.183   3.050  0.2997 -1.3886 -1.5216
 1261SOL     OW 5202   2.566   5.750   6.585  0.0074 -0.0740  0.1415
 1261SOL    HW1 5203   2.491   5.776   6.638 -0.8921 -1.2488 -0.5167
 1261SOL    HW2 5204   2.529   5.695   6.516  1.1613  1.3106 -1.6553
 1262SOL     OW 5205   2.023   0.078   7.352  0.6543 -0.1866  0.2939
 1262SOL    HW1 5206   2.055   0.132   7.424  0.9668 -0.2027  0.1652
 1262SOL    HW2 5207   2.042   0.128   7.273  0.0129 -0.0199  0.2409
 1263SOL     OW 5208   4.733   5.104   0.372 -0.6096  0.2758  0.0329
 1263SOL    HW1 5209   4.788   5.137   0.443  0.2135  0.3222 -0.6187
 1263SOL    HW2 5210   4.716   5.181   0.318 -1.8212  0.3905  0.5375
 1264SOL     OW 5211   1.794   2.242   3.420 -0.3660 -0.2574 -0.1187
 1264SOL    HW1 5212   1.884   2.210   3.415 -0.5425 -0.6422 -3.1125
 1264SOL    HW2 5213   1.754   2.192   3.491  1.5133 -0.7633  0.6271
 1265SOL     OW 5214   7.177   0.989   0.548  0.0751 -0.2096  0.4000
 1265SOL    HW1 5215   7.269   1.003   0.524  0.8136  0.6885  3.2912
 1265SOL    HW2 5216   7.135   1.073   0.531 -0.0104 -0.3327 -0.0196
 1266SOL     OW 5217   2.257   0.243   0.718 -0.6640  0.7908 -0.1041
 1266SOL    HW1 5218   2.192   0.178   0.744  0.2200 -0.1400 -0.1469
 1266SOL    HW2 5219   2.335   0.192   0.698 -0.1573  1.8119 -0.8447
 1267SOL     OW 5220   0.471   4.418   1.537 -0.3243 -0.0587  0.2137
 1267SOL    HW1 5221   0.526   4.446   1.610 -2.1203 -0.3389  1.7459
 1267SOL    HW2 5222   0.390   4.386   1.578 -1.5708  0.1445 -1.9226
 1268SOL     OW 5223   1.401   4.726   1.763 -0.1422  0.2144  0.4722
 1268SOL    HW1 5224   1.333   4.677   1.808  1.3075  0.2150  2.8759
 1268SOL    HW2 5225   1.358   4.805   1.730 -1.8219 -1.0883 -0.6081
 1269SOL     OW 5226   4.450   1.140   4.308  0.2292 -0.1413 -0.4512
 1269SOL    HW1 5227   4.402   1.082   4.367  0.8869 -0.3346 -0.1034
 1269SOL    HW2 5228   4.433   1.228   4.341 -1.3269 -0.0536 -1.3783
 1270SOL     OW 5229   3.798   3.603   7.331 -0.3905  0.2487 -0.6294
 1270SOL    HW1 5230   3.777   3.694   7.311 -1.2806  0.5534  1.4624
 1270SOL    HW2 5231   3.717   3.567   7.368  0.0594 -1.2964 -1.0618
 1271SOL     OW 5232   5.258   7.442   6.240  0.3414  0.2169 -0.6698
 1271SOL    HW1 5233   5.222   7.394   6.165  0.9145  1.6251 -1.8756
 1271SOL    HW2 5234   5.212   7.405   6.316  0.0177 -1.4980 -1.6502
 1272SOL     OW 5235   0.333   5.296   2.005 -0.3301 -0.1881  0.1612
 1272SOL    HW1 5236   0.263   5.354   1.975 -0.7464 -1.0111 -0.5253
 1272SOL    HW2 5237   0.288   5.231   2.059  0.0248 -0.2743  0.3542
 1273SOL     OW 5238   1.675   7.652   2.451  0.1685 -0.4242  0.0397
 1273SOL    HW1 5239   1.728   7.723   2.487  0.2470  0.1275 -1.1138
 1273SOL    HW2 5240   1.634   7.611   2.527  2.1633 -0.8099  0.9546
 1274SOL     OW 5241   6.006   2.619   1.041 -0.4492 -0.7793 -0.4709
 1274SOL    HW1 5242   6.037   2.686   0.980 -2.3981  0.4728 -0.1859
 1274SOL    HW2 5243   6.013   2.659   1.127 -0.0555 -1.5949 -0.1114
 1275SOL     OW 5244   2.170   5.297   0.798 -0.3870 -0.2055  0.0578
 1275SOL    HW1 5245   2.180   5.387   0.769 -0.8262 -0.0931  0.2436
 1275SOL    HW2 5246   2.251   5.278   0.845  0.3060 -0.3785 -1.1771
 1276SOL     OW 5247   6.650   7.572   6.508 -0.5883 -0.1168  0.2838
 1276SOL    HW1 5248   6.668   7.541   6.597  1.2592  0.7298  0.2630
 1276SOL    HW2 5249   6.578   7.635   6.518 -1.9462 -1.6906  0.8150
 1277SOL     OW 5250   5.809   2.696   0.702  0.5769 -0.3564  0.3075
 1277SOL    HW1 5251   5.810   2.600   0.699 -0.5161 -0.3579 -0.9489
 1277SOL    HW2 5252   5.768   2.717   0.786  2.9076 -0.9200  1.6636
 1278SOL     OW 5253   7.795   6.116   5.546  0.4755 -0.2929  0.0158
 1278SOL    HW1 5254   7.824   6.033   5.585  0.0723  0.3809  1.8111
 1278SOL    HW2 5255   7.764   6.091   5.459 -3.0647 -2.7680  1.7190
 1279SOL     OW 5256   6.619   6.097   5.685 -0.2612 -0.1691 -0.6674
 1279SOL    HW1 5257   6.625   6.152   5.607 -0.2564  0.6511 -0.0883
 1279SOL    HW2 5258   6.556   6.141   5.741 -0.7205 -1.0788 -0.4565
 1280SOL     OW 5259   5.318   2.208   1.526  0.3270  0.3139 -0.2478
 1280SOL    HW1 5260   5.222   2.207   1.530  0.3108  1.1052  3.7101
 1280SOL    HW2 5261   5.341   2.301   1.530  1.3246  0.1755 -1.9455
 1281SOL     OW 5262   7.884   4.672   0.113 -0.3711  0.7461  0.3488
 1281SOL    HW1 5263   7.834   4.713   0.184 -2.4798 -0.2320 -0.4759
 1281SOL    HW2 5264   7.901   4.583   0.143  0.1882  0.8308  0.2912
 1282SOL     OW 5265   5.426   2.283   7.913 -0.0892 -0.0662  0.2201
 1282SOL    HW1 5266   5.382   2.285   7.998 -1.0378  1.9442 -0.2607
 1282SOL    HW2 5267   5.356   2.267   7.850  0.6300 -1.6970 -0.2244
 1283SOL     OW 5268   6.901   0.871   1.216 -0.1690 -0.5418 -0.0696
 1283SOL    HW1 5269   6.954   0.841   1.291  1.0390 -0.8293 -1.0037
 1283SOL    HW2 5270   6.877   0.790   1.170 -0.5719 -0.3393 -0.2190
 1284SOL     OW 5271   5.758   3.668   7.175  0.5440 -0.1077 -0.0389
 1284SOL    HW1 5272   5.726   3.626   7.096  2.5352 -0.4338 -0.7278
 1284SOL    HW2 5273   5.744   3.604   7.245  1.3650 -0.9773 -0.6560
 1285SOL     OW 5274   2.689   5.617   0.810  0.2510 -0.1425  0.5650
 1285SOL    HW1 5275   2.628   5.551   0.845 -1.5126  1.1320  0.0485
 1285SOL    HW2 5276   2.674   5.616   0.716  0.7892  0.4242  0.4685
 1286SOL     OW 5277   4.693   2.913   2.306  0.0240 -0.4393  0.0909
 1286SOL    HW1 5278   4.616   2.887   2.256 -1.1083 -2.9619  2.8148
 1286SOL    HW2 5279   4.759   2.847   2.286  0.0834 -0.5668  0.6662
 1287SOL     OW 5280   4.243   3.456   6.018  0.9808 -0.1362  0.2736
 1287SOL    HW1 5281   4.267   3.500   5.936  1.7484 -1.3375 -0.1808
 1287SOL    HW2 5282   4.259   3.521   6.086 -0.5567  1.1962 -0.5844
 1288SOL     OW 5283   5.255   7.420   3.965 -0.5242 -0.1002 -0.2915
 1288SOL    HW1 5284   5.309   7.374   3.901  0.8023  1.4446 -0.3660
 1288SOL    HW2 5285   5.290   7.392   4.050  0.1603  0.6080 -0.3327
 1289SOL     OW 5286   7.230   4.161   3.998  0.2796  0.0612  0.0625
 1289SOL    HW1 5287   7.235   4.155   3.902  0.7362  1.2315 -0.0045
 1289SOL    HW2 5288   7.138   4.180   4.016  0.8268  4.1322 -0.4841
 1290SOL     OW 5289   0.871   4.560   6.537 -0.3743 -0.6295 -0.4398
 1290SOL    HW1 5290   0.898   4.508   6.613  1.4758 -0.0520 -0.6605
 1290SOL    HW2 5291   0.899   4.509   6.461  2.0426  0.8923 -0.6538
 1291SOL     OW 5292   6.004   7.740   4.214  0.0083 -0.3628 -0.0210
 1291SOL    HW1 5293   6.064   7.719   4.286  0.2755  0.1928 -0.0730
 1291SOL    HW2 5294   6.032   7.827   4.185 -0.6625 -0.2123 -0.2194
 1292SOL     OW 5295   6.270   2.943   2.742 -0.0582  0.1078  0.2454
 1292SOL    HW1 5296   6.327   2.872   2.773 -0.5412 -0.3131  0.1780
 1292SOL    HW2 5297   6.330   3.002   2.696  0.4334  0.0090  0.7423
 1293SOL     OW 5298   7.142   7.064   0.505 -0.1660  0.4413 -0.3607
 1293SOL    HW1 5299   7.169   7.006   0.433  0.8331  2.3876 -1.6619
 1293SOL    HW2 5300   7.223   7.104   0.535 -0.5777 -0.2660  1.8765
 1294SOL     OW 5301   7.598   6.172   6.891  0.0433  0.2671  0.4700
 1294SOL    HW1 5302   7.553   6.119   6.957  0.9427 -1.5352 -0.2883
 1294SOL    HW2 5303   7.657   6.110   6.848  0.7441  1.7998 -0.8476
 1295SOL     OW 5304   3.638   0.198   3.677  0.2818 -0.2976  0.1193
 1295SOL    HW1 5305   3.548   0.173   3.698  0.3634 -1.0961 -0.4154
 1295SOL    HW2 5306   3.674   0.122   3.632  1.5083 -0.3251  1.0861
 1296SOL     OW 5307   6.377   3.824   2.470 -0.1662  0.5500 -0.4337
 1296SOL    HW1 5308   6.311   3.892   2.465 -1.6249 -0.8833 -3.1487
 1296SOL    HW2 5309   6.344   3.762   2.535 -1.5366 -0.0945 -1.6828
 1297SOL     OW 5310   4.627   4.511   7.359 -0.6554 -0.2673  0.0182
 1297SOL    HW1 5311   4.648   4.604   7.369 -1.6433  0.0038 -0.3834
 1297SOL    HW2 5312   4.703   4.474   7.315  0.5613 -0.0305  1.7858
 1298SOL     OW 5313   4.336   0.980   5.129 -0.1103  0.1173  0.1083
 1298SOL    HW1 5314   4.299   1.060   5.166 -0.6195 -0.1782  0.2455
 1298SOL    HW2 5315   4.265   0.916   5.134  0.5809 -0.6017  0.8499
 1299SOL     OW 5316   3.723   7.931   2.595 -0.1104  0.3964 -0.1826
 1299SOL    HW1 5317   3.702   8.017   2.559  3.4424  1.4060 -0.2313
 1299SOL    HW2 5318   3.691   7.869   2.529  0.5662  1.8932 -1.9928
 1300SOL     OW 5319   1.224   0.380   5.007 -0.8963 -0.0884 -0.4896
 1300SOL    HW1 5320   1.210   0.465   4.965 -1.0822 -0.7521 -1.8195
 1300SOL    HW2 5321   1.245   0.321   4.935 -1.9853 -1.4433  0.2459
 1301SOL     OW 5322   6.645   2.283   1.908  0.0266 -0.6810 -0.5217
 1301SOL    HW1 5323   6.723   2.281   1.964 -0.1211 -2.0065 -0.3302
 1301SOL    HW2 5324   6.645   2.198   1.863 -1.5786 -0.9356 -0.1196
 1302SOL     OW 5325   2.818   7.876   5.325 -0.0380  0.0677 -0.1205
 1302SOL    HW1 5326   2.850   7.948   5.380 -0.5331 -1.4566  2.3433
 1302SOL    HW2 5327   2.735   7.907   5.290 -0.3165  0.6469  1.0223
 1303SOL     OW 5328   0.773   0.122   8.004 -0.2222  0.6737 -0.3217
 1303SOL    HW1 5329   0.832   0.088   7.937 -1.0178  0.5103 -0.9480
 1303SOL    HW2 5330   0.746   0.208   7.971 -0.7991  0.4925 -0.3252
 1304SOL     OW 5331   0.945   6.800   6.161  0.4453 -0.6577  0.1021
 1304SOL    HW1 5332   1.038   6.813   6.180  0.4973 -1.3837  0.3835
 1304SOL    HW2 5333   0.944   6.737   6.088  0.2211  1.1718 -1.5557
 1305SOL     OW 5334   3.904   6.475   0.563  0.3528 -0.3028 -0.8870
 1305SOL    HW1 5335   3.865   6.424   0.492  0.2679 -1.7014  0.1345
 1305SOL    HW2 5336   3.989   6.433   0.579  0.9799  0.8484 -1.0524
 1306SOL     OW 5337   0.271   1.444   6.400  0.4133 -0.4147 -0.5779
 1306SOL    HW1 5338   0.314   1.365   6.369 -0.6926 -1.1560 -0.2954
 1306SOL    HW2 5339   0.193   1.412   6.446 -1.2484  0.9121 -2.3327
 1307SOL     OW 5340   1.246   6.651   2.098 -0.0669  0.3102 -0.0246
 1307SOL    HW1 5341   1.170   6.599   2.071 -0.6446  0.9306  0.3706
 1307SOL    HW2 5342   1.321   6.594   2.080 -0.6227 -0.3271 -0.3959
 1308SOL     OW 5343   2.645   2.694   7.539  1.0313 -0.2524  0.0283
 1308SOL    HW1 5344   2.735   2.666   7.523  0.5275 -1.8764 -0.1048
 1308SOL    HW2 5345   2.597   2.664   7.462  0.1606 -0.4701  0.6469
 1309SOL     OW 5346   7.859   7.450   8.001  0.0013  0.1730  0.3178
 1309SOL    HW1 5347   7.904   7.480   8.081  0.6218  0.4583 -0.1262
 1309SOL    HW2 5348   7.930   7.416   7.946 -0.5367 -0.8681  0.2535
 1310SOL     OW 5349   1.005   7.067   2.518  0.3490 -0.1469  0.1218
 1310SOL    HW1 5350   0.913   7.085   2.501  0.2246 -0.0999  0.8175
 1310SOL    HW2 5351   1.007   6.976   2.545  0.9859 -1.3558 -3.4369
 1311SOL     OW 5352   1.920   0.444   0.219  0.0701  0.1198 -0.7353
 1311SOL    HW1 5353   1.935   0.354   0.192  1.0560 -0.1611  0.6004
 1311SOL    HW2 5354   2.004   0.471   0.257 -0.8962  0.7823  1.0555
 1312SOL     OW 5355   5.615   4.091   3.654  0.1831 -0.1675  0.0616
 1312SOL    HW1 5356   5.704   4.077   3.620  0.2225 -1.7917  0.7559
 1312SOL    HW2 5357   5.624   4.084   3.749 -0.7942 -1.1211  0.1071
 1313SOL     OW 5358   2.733   3.701   2.499  0.2147  0.2814  0.4106
 1313SOL    HW1 5359   2.784   3.622   2.518  3.0399  1.9827  0.6138
 1313SOL    HW2 5360   2.724   3.745   2.583  0.2807  1.0210  0.0444
 1314SOL     OW 5361   2.220   4.363   2.308  0.3315  0.9020  0.8035
 1314SOL    HW1 5362   2.153   4.432   2.301 -0.8401 -0.3318 -0.8827
 1314SOL    HW2 5363   2.302   4.408   2.288 -0.3318  1.9336  0.2979
 1315SOL     OW 5364   4.188   2.463   0.430 -0.2397  0.2405  0.0377
 1315SOL    HW1 5365   4.147   2.537   0.385  0.2435 -0.0344 -0.8746
 1315SOL    HW2 5366   4.258   2.502   0.483 -0.8830  0.5758  0.6734
 1316SOL     OW 5367   5.651   2.009   5.736 -0.5046 -0.4084 -0.4516
 1316SOL    HW1 5368   5.660   1.996   5.641  0.5952  0.9263 -0.5778
 1316SOL    HW2 5369   5.675   1.925   5.774 -0.7331 -0.8971 -1.3544
 1317SOL     OW 5370   0.003   2.062   2.619 -0.3687 -0.6009 -0.1577
 1317SOL    HW1 5371   0.001   2.019   2.705 -0.3613 -3.9405 -1.6493
 1317SOL    HW2 5372  -0.088   2.059   2.589 -0.7018  2.1244  0.3189
 1318SOL     OW 5373   0.638   0.318   7.051 -0.3999 -0.3672 -0.2211
 1318SOL    HW1 5374   0.673   0.269   7.125  1.2379  1.8884  0.6200
 1318SOL    HW2 5375   0.546   0.335   7.074 -0.1608 -0.4919  0.8636
 1319SOL     OW 5376   7.659   2.342   2.095  0.2364 -0.2783 -0.0379
 1319SOL    HW1 5377   7.723   2.410   2.117  0.1038  0.0882 -0.7585
 1319SOL    HW2 5378   7.648   2.293   2.176  0.6171  0.3292  0.3930
 1320SOL     OW 5379   4.387   2.535   1.438 -0.2730 -0.0924 -0.0621
 1320SOL    HW1 5380   4.424   2.564   1.354  2.5889 -3.3935 -0.1673
 1320SOL    HW2 5381   4.427   2.592   1.503  0.4296  0.1055 -0.6582
 1321SOL     OW 5382   2.110   3.821   3.937  0.1284 -0.4191 -0.4477
 1321SOL    HW1 5383   2.098   3.759   4.009 -1.1459  0.6809  0.3318
 1321SOL    HW2 5384   2.118   3.766   3.859  1.7042 -1.6477  0.5157
 1322SOL     OW 5385   7.841   6.846   0.027  0.1516 -0.4874 -0.7175
 1322SOL    HW1 5386   7.803   6.800  -0.048  0.1110 -0.6173 -0.6193
 1322SOL    HW2 5387   7.773   6.908   0.055  0.5480  0.2671 -1.4009
 1323SOL     OW 5388   0.229   5.055   7.036 -0.2296  0.4432 -0.4693
 1323SOL    HW1 5389   0.281   5.021   6.963 -0.3330  0.0497 -0.3628
 1323SOL    HW2 5390   0.150   5.001   7.036  1.1796 -1.8832  1.9836
 1324SOL     OW 5391   6.428   7.490   7.543  0.1926 -0.3838  0.1893
 1324SOL    HW1 5392   6.513   7.526   7.565 -0.7264  1.7736  0.5103
 1324SOL    HW2 5393   6.426   7.490   7.447  0.4323 -0.1001  0.1817
 1325SOL     OW 5394   1.510   3.308   7.806  0.5022  0.6406 -0.7161
 1325SOL    HW1 5395   1.550   3.221   7.810 -0.5667  0.0818 -1.8303
 1325SOL    HW2 5396   1.583   3.368   7.825  1.5840 -0.4167 -1.3583
 1326SOL     OW 5397   0.082   3.006   4.696 -0.6645 -0.3223 -0.3666
 1326SOL    HW1 5398   0.178   3.000   4.704 -0.5424 -0.1159 -1.4674
 1326SOL    HW2 5399   0.062   2.954   4.618 -1.2606  0.9750 -1.1048
 1327SOL     OW 5400   2.318   2.550   8.057  0.2583  0.1518 -1.0809
 1327SOL    HW1 5401   2.410   2.531   8.077 -0.3919 -1.3141  0.8700
 1327SOL    HW2 5402   2.290   2.479   8.000 -0.2240 -0.6968  0.1736
 1328SOL     OW 5403   6.376   0.028   2.822  0.3817  0.2050 -0.2146
 1328SOL    HW1 5404   6.460  -0.017   2.816  0.5542  0.2616  1.3275
 1328SOL    HW2 5405   6.349   0.016   2.913  0.4138  3.1740  0.2681
 1329SOL     OW 5406   3.134   1.575   0.693  0.2595 -0.2993 -0.4134
 1329SOL    HW1 5407   3.140   1.665   0.661 -1.5516 -0.7969 -2.4120
 1329SOL    HW2 5408   3.055   1.575   0.748  1.5311 -0.2056  1.4960
 1330SOL     OW 5409   3.889   0.976   0.325  0.4053  0.8289  0.6712
 1330SOL    HW1 5410   3.955   0.907   0.319  0.2563  0.7810 -1.4575
 1330SOL    HW2 5411   3.934   1.049   0.367  1.8488  0.7963 -0.7202
 1331SOL     OW 5412   2.942   6.596   2.529  0.2881 -0.6793  0.0631
 1331SOL    HW1 5413   2.942   6.543   2.609 -1.9087 -3.4818 -1.6147
 1331SOL    HW2 5414   2.860   6.644   2.533  1.3657  1.2252  0.6185
 1332SOL     OW 5415   4.833   0.970   7.802  0.2176 -0.6859 -0.2562
 1332SOL    HW1 5416   4.877   0.980   7.718  0.5786 -2.8432 -0.3774
 1332SOL    HW2 5417   4.905   0.956   7.865  0.1714  3.2936  0.9583
 1333SOL     OW 5418   2.059   7.318   0.275 -0.4905  0.0332 -0.3881
 1333SOL    HW1 5419   2.010   7.364   0.344  2.1382 -0.0027  1.6708
 1333SOL    HW2 5420   2.026   7.229   0.277 -1.1527  0.2828  0.1290
 1334SOL     OW 5421   2.970   2.813   2.058  0.1296 -0.7613 -0.2048
 1334SOL    HW1 5422   2.922   2.821   1.975 -1.7522 -2.5210  0.6128
 1334SOL    HW2 5423   2.937   2.886   2.111  0.5579 -0.2498 -0.6289
 1335SOL     OW 5424   0.093   1.707   7.836 -0.4739  0.3059  0.6678
 1335SOL    HW1 5425   0.187   1.694   7.828 -0.5371 -0.4027  0.9738
 1335SOL    HW2 5426   0.056   1.619   7.830 -1.0497  0.4863  1.3991
 1336SOL     OW 5427   4.243   1.865   4.587  0.2269  0.3475  0.0718
 1336SOL    HW1 5428   4.169   1.805   4.577  0.7366 -0.0934 -1.2289
 1336SOL    HW2 5429   4.233   1.927   4.515  1.6069 -0.2638 -0.6868
 1337SOL     OW 5430   5.495   3.198   1.665  0.3472  0.1005 -0.0453
 1337SOL    HW1 5431   5.437   3.214   1.591  1.4033  1.1805 -0.6729
 1337SOL    HW2 5432   5.561   3.137   1.632  0.5935  0.2772  0.1062
 1338SOL     OW 5433   6.505   5.393   3.602 -0.7570 -0.3453  0.2007
 1338SOL    HW1 5434   6.446   5.468   3.602  0.7969  0.9446  0.5838
 1338SOL    HW2 5435   6.565   5.410   3.674 -1.3135 -2.8016  1.3513
 1339SOL     OW 5436   6.502   0.166   7.579  0.0070 -0.1692 -0.1399
 1339SOL    HW1 5437   6.550   0.165   7.662  0.9721 -0.4624 -0.6880
 1339SOL    HW2 5438   6.507   0.076   7.547 -0.9119 -0.2066 -0.2170
 1340SOL     OW 5439   0.987   7.445   2.296  0.4330  0.6953  0.0492
 1340SOL    HW1 5440   1.054   7.412   2.356  1.8675 -1.1510 -2.3930
 1340SOL    HW2 5441   1.030   7.516   2.248  0.4599 -0.0466 -1.0582
 1341SOL     OW 5442   0.158   1.435   0.602 -0.4945  0.2204  0.4375
 1341SOL    HW1 5443   0.205   1.369   0.551  1.9089 -0.3578  3.1265
 1341SOL    HW2 5444   0.150   1.509   0.542  1.2287 -0.7518 -1.1319
 1342SOL     OW 5445   2.316   0.805   7.157  0.1772 -0.4579 -0.0345
 1342SOL    HW1 5446   2.360   0.865   7.097 -0.0855 -0.2531 -0.0193
 1342SOL    HW2 5447   2.294   0.729   7.103  1.1408 -0.8577  0.0983
 1343SOL     OW 5448   3.799   5.061   5.265  0.1029  0.2703 -0.2357
 1343SOL    HW1 5449   3.854   5.116   5.320  2.6834 -3.1154  0.9557
 1343SOL    HW2 5450   3.777   5.115   5.189  3.5739  2.4600  0.1390
 1344SOL     OW 5451   4.196   0.613   6.171 -0.1136  0.0276 -0.1915
 1344SOL    HW1 5452   4.205   0.708   6.162  1.8786  0.2035  2.2531
 1344SOL    HW2 5453   4.285   0.579   6.160  0.3678 -0.8161  4.3533
 1345SOL     OW 5454   4.148   4.774   1.583  0.4124 -0.0255  0.1194
 1345SOL    HW1 5455   4.175   4.750   1.672  0.7544  1.0595  0.3230
 1345SOL    HW2 5456   4.113   4.863   1.592 -1.2958 -0.5910 -0.5099
 1346SOL     OW 5457   7.760   7.706   5.375 -0.3500  0.1714  0.3167
 1346SOL    HW1 5458   7.753   7.789   5.327 -0.8065 -0.0866 -0.0789
 1346SOL    HW2 5459   7.674   7.665   5.363  0.3095 -0.9869 -0.6683
 1347SOL     OW 5460   7.830   5.576   4.295  0.2692  0.1516  0.0211
 1347SOL    HW1 5461   7.900   5.636   4.270  1.0401 -0.3986  0.8076
 1347SOL    HW2 5462   7.874   5.493   4.311 -0.8394 -0.8032 -1.5534
 1348SOL     OW 5463   3.592   2.897   7.909  0.2993  0.1427 -0.2906
 1348SOL    HW1 5464   3.672   2.848   7.928 -0.5154 -0.5830  1.5179
 1348SOL    HW2 5465   3.621   2.987   7.899  1.5666 -0.3751 -1.5884
 1349SOL     OW 5466   3.116   1.154   3.486  0.2710 -0.2806  0.2486
 1349SOL    HW1 5467   3.190   1.094   3.491 -0.1319 -0.9087 -0.9020
 1349SOL    HW2 5468   3.068   1.141   3.568 -0.4058 -2.3693 -0.4069
 1350SOL     OW 5469   3.221   1.711   4.595 -0.3211 -0.0851 -0.1321
 1350SOL    HW1 5470   3.289   1.661   4.550 -0.8036 -0.0067 -0.9801
 1350SOL    HW2 5471   3.223   1.679   4.685  0.2858 -0.6634 -0.3431
 1351SOL     OW 5472   3.448   1.577   4.204  0.2467  0.1531  0.1069
 1351SOL    HW1 5473   3.424   1.576   4.297  0.0500  1.5922  0.0812
 1351SOL    HW2 5474   3.487   1.490   4.189 -0.6019 -0.4630  1.2887
 1352SOL     OW 5475   1.381   3.143   5.381  0.1792 -0.8327  0.3718
 1352SOL    HW1 5476   1.367   3.232   5.413  0.5167 -0.6526  0.0284
 1352SOL    HW2 5477   1.348   3.144   5.291 -1.4196 -1.5250  0.9252
 1353SOL     OW 5478   5.679   7.179   5.467 -0.2097 -0.1977  0.4510
 1353SOL    HW1 5479   5.616   7.109   5.485 -1.2265  0.9779  1.6446
 1353SOL    HW2 5480   5.763   7.144   5.496 -0.5379 -1.2725  0.1313
 1354SOL     OW 5481   4.176   6.325   5.703 -0.2857  0.0219 -0.0650
 1354SOL    HW1 5482   4.128   6.403   5.676  0.0232  0.2117 -0.0648
 1354SOL    HW2 5483   4.223   6.297   5.624  1.1062  0.9277  0.3987
 1355SOL     OW 5484   7.846   1.917   2.965  0.1396 -0.2173  0.3024
 1355SOL    HW1 5485   7.902   1.856   2.918  0.1166 -1.6298  1.9904
 1355SOL    HW2 5486   7.906   1.983   3.001  0.5911 -1.0706  1.1380
 1356SOL     OW 5487   4.566   4.105   6.633  0.3750 -0.5575  0.4736
 1356SOL    HW1 5488   4.655   4.133   6.654  0.6271 -0.4809 -0.6405
 1356SOL    HW2 5489   4.551   4.136   6.544 -0.1079 -2.1163 -0.0346
 1357SOL     OW 5490   5.485   3.698   2.163 -0.1931 -0.0279 -0.5933
 1357SOL    HW1 5491   5.485   3.637   2.088  0.5500  0.3935 -0.9448
 1357SOL    HW2 5492   5.392   3.711   2.182 -0.4743  1.0546 -2.4420
 1358SOL     OW 5493   7.424   5.179   4.333  0.2731  0.0271 -0.2220
 1358SOL    HW1 5494   7.500   5.233   4.352  0.0600 -0.0728  0.9616
 1358SOL    HW2 5495   7.448   5.092   4.365  0.6337 -0.6488 -2.1358
 1359SOL     OW 5496   6.614   4.302   7.704  0.5265  0.0765 -0.1961
 1359SOL    HW1 5497   6.597   4.333   7.793 -3.0417 -3.3376  0.5986
 1359SOL    HW2 5498   6.671   4.226   7.715  0.4445 -0.0902 -0.8573
 1360SOL     OW 5499   5.844   1.605   0.915 -0.3902 -0.1232  0.2380
 1360SOL    HW1 5500   5.920   1.641   0.960  0.2213 -0.9362 -0.1234
 1360SOL    HW2 5501   5.865   1.614   0.822 -1.6027  1.4649  0.0818
 1361SOL     OW 5502   3.895   2.665   4.916 -0.1292 -0.5741  0.7019
 1361SOL    HW1 5503   3.927   2.741   4.868  2.1604 -0.9627  1.4994
 1361SOL    HW2 5504   3.808   2.648   4.879  0.1541  1.1673 -0.9023
 1362SOL     OW 5505   0.250   6.502   7.790 -0.6289  0.9661  0.3193
 1362SOL    HW1 5506   0.258   6.482   7.883 -1.4597  2.4189  0.7491
 1362SOL    HW2 5507   0.322   6.563   7.772  0.9415 -1.0615 -0.5868
 1363SOL     OW 5508   1.196   2.742   2.160  0.3182 -0.2727 -0.1100
 1363SOL    HW1 5509   1.271   2.773   2.211  0.1535  0.3791 -0.2492
 1363SOL    HW2 5510   1.161   2.821   2.119  0.2979 -0.7484 -1.0445
 1364SOL     OW 5511   1.041   2.098   2.413 -0.1138 -0.7317 -0.8962
 1364SOL    HW1 5512   1.020   2.127   2.501  1.6070 -1.4594 -0.2194
 1364SOL    HW2 5513   1.111   2.157   2.383 -1.0927 -0.0896 -2.0526
 1365SOL     OW 5514   2.626   0.475   6.947  0.0090 -0.7148 -0.0439
 1365SOL    HW1 5515   2.684   0.550   6.938 -0.9360 -0.1019 -1.4445
 1365SOL    HW2 5516   2.589   0.482   7.035  0.6585 -0.0983  0.1863
 1366SOL     OW 5517   1.049   2.607   1.416  0.3793 -0.7168  0.0221
 1366SOL    HW1 5518   0.968   2.589   1.369  0.5771 -1.1007 -0.1830
 1366SOL    HW2 5519   1.116   2.562   1.364  0.3727 -2.8231  1.7192
 1367SOL     OW 5520   7.598   6.039   1.185  0.3058 -0.0048  0.3786
 1367SOL    HW1 5521   7.689   6.039   1.154  0.4197  1.8541  0.6211
 1367SOL    HW2 5522   7.593   6.112   1.246 -1.2376 -0.4107  0.7803
 1368SOL     OW 5523   4.987   2.802   6.573 -0.6539 -0.2688  0.2249
 1368SOL    HW1 5524   5.051   2.843   6.631  0.4939  0.0684 -1.1903
 1368SOL    HW2 5525   4.982   2.711   6.602 -0.5753  0.0437  1.2269
 1369SOL     OW 5526   5.592   1.802   6.414  0.2774  0.0230 -0.0716
 1369SOL    HW1 5527   5.537   1.833   6.342 -0.0807  0.4458  0.3757
 1369SOL    HW2 5528   5.555   1.842   6.492 -0.2839 -1.6292  0.5629
 1370SOL     OW 5529   3.946   0.638   1.575 -0.8482 -0.2288  0.0834
 1370SOL    HW1 5530   3.865   0.688   1.571 -0.6765  0.0863  0.5171
 1370SOL    HW2 5531   4.010   0.697   1.616 -0.8787 -1.0859  1.4496
 1371SOL     OW 5532   6.523   4.147   6.328  0.2404  0.1398 -0.1051
 1371SOL    HW1 5533   6.528   4.230   6.375  0.1167  1.8880 -2.9954
 1371SOL    HW2 5534   6.607   4.139   6.284  0.1455 -1.1528 -0.0955
 1372SOL     OW 5535   2.217   4.561   7.629  0.5110  0.6506  0.3093
 1372SOL    HW1 5536   2.202   4.522   7.715  0.3031  0.5506  0.2276
 1372SOL    HW2 5537   2.199   4.654   7.642  1.7032  0.8396  0.6776
 1373SOL     OW 5538   0.102   1.776   3.051 -0.3769 -0.3253 -0.3370
 1373SOL    HW1 5539   0.164   1.727   3.105  0.7338  0.6677 -0.6585
 1373SOL    HW2 5540   0.020   1.773   3.100  0.2993 -0.4537  0.8333
 1374SOL     OW 5541   0.551   7.212   1.620  0.7950  0.6891 -0.0033
 1374SOL    HW1 5542   0.457   7.223   1.613  0.6787 -0.2018 -0.0369
 1374SOL    HW2 5543   0.583   7.225   1.530  0.5873  0.0970 -0.1715
 1375SOL     OW 5544   7.585   7.342   4.668  0.3401  0.0604  0.4017
 1375SOL    HW1 5545   7.599   7.367   4.759  1.1550 -1.7549  0.8280
 1375SOL    HW2 5546   7.524   7.407   4.634 -0.7393  0.2344  2.5113
 1376SOL     OW 5547   7.943   0.920   4.930 -0.1649 -0.0180 -0.4628
 1376SOL    HW1 5548   7.896   0.853   4.979 -0.1150  0.4087  0.1717
 1376SOL    HW2 5549   7.874   0.976   4.894 -0.2011 -0.3297 -0.8894
 1377SOL     OW 5550   4.416   4.132   1.228  0.3625 -0.5300  0.5152
 1377SOL    HW1 5551   4.369   4.079   1.163  0.3599 -1.2615  1.1071
 1377SOL    HW2 5552   4.487   4.173   1.178 -0.6895  0.3521 -0.3320
 1378SOL     OW 5553   2.826   4.734   1.585  0.4150  0.1243 -0.4092
 1378SOL    HW1 5554   2.887   4.793   1.629  2.3087  0.7196 -3.5232
 1378SOL    HW2 5555   2.861   4.725   1.496 -3.0930 -0.9628 -1.8630
 1379SOL     OW 5556   0.130   3.951   7.539  0.3194 -0.3904  0.4794
 1379SOL    HW1 5557   0.045   3.947   7.496 -1.1270  0.8694  2.9489
 1379SOL    HW2 5558   0.165   4.037   7.514  0.8149 -0.8418 -0.4081
 1380SOL     OW 5559   3.098   0.801   7.933  0.2100 -0.6255 -0.1198
 1380SOL    HW1 5560   3.062   0.799   8.021  3.2180  2.1760  1.3686
 1380SOL    HW2 5561   3.065   0.882   7.895 -0.4623 -1.4442 -1.3665
 1381SOL     OW 5562   2.049   5.669   4.912 -0.2431  0.1312  0.4570
 1381SOL    HW1 5563   2.101   5.727   4.857 -0.0837 -0.3697  0.0709
 1381SOL    HW2 5564   1.988   5.627   4.851 -0.0449 -0.4525  0.6559
 1382SOL     OW 5565   1.261   5.369   6.776  0.2634  0.5521  0.1885
 1382SOL    HW1 5566   1.239   5.286   6.732  1.1616  0.4618 -0.0966
 1382SOL    HW2 5567   1.184   5.387   6.830  0.1885 -0.6427  0.5128
 1383SOL     OW 5568   3.110   1.364   5.014 -0.4018  0.0861  0.3836
 1383SOL    HW1 5569   3.201   1.347   4.988 -0.2688  0.3850  0.6447
 1383SOL    HW2 5570   3.081   1.283   5.055 -1.0111 -0.8520 -1.7317
 1384SOL     OW 5571   1.697   3.092   6.566  0.1472 -0.4173 -0.1546
 1384SOL    HW1 5572   1.662   3.016   6.611 -0.6183 -1.2216 -1.9875
 1384SOL    HW2 5573   1.629   3.158   6.573 -0.1132 -0.6558 -0.4225
 1385SOL     OW 5574   6.392   2.651   1.387  0.0421 -0.0369 -0.6861
 1385SOL    HW1 5575   6.484   2.680   1.392  0.7056 -2.1378  2.7230
 1385SOL    HW2 5576   6.395   2.573   1.332 -0.2964  1.4329 -2.9117
 1386SOL     OW 5577   5.757   4.315   1.606  0.5838 -0.1088  0.7829
 1386SOL    HW1 5578   5.728   4.379   1.671 -0.3886  0.7780 -0.4737
 1386SOL    HW2 5579   5.746   4.359   1.522 -0.8459 -2.1644 -0.1937
 1387SOL     OW 5580   0.612   4.606   7.273  0.0159 -0.2138  0.0077
 1387SOL    HW1 5581   0.618   4.646   7.360 -0.5135 -0.3665  0.1171
 1387SOL    HW2 5582   0.583   4.517   7.290  0.6727 -0.4866 -0.2740
 1388SOL     OW 5583   0.370   0.136   4.256  0.5357 -0.2859  0.0152
 1388SOL    HW1 5584   0.389   0.055   4.305  0.1924 -0.7539 -0.6125
 1388SOL    HW2 5585   0.345   0.199   4.323 -0.5425 -1.0961  0.4056
 1389SOL     OW 5586   0.643   2.201   0.027  0.1763  0.3231  0.3951
 1389SOL    HW1 5587   0.715   2.254   0.060  1.2389 -0.0757 -1.1774
 1389SOL    HW2 5588   0.605   2.253  -0.043  0.4984 -0.4801 -0.3994
 1390SOL     OW 5589   1.577   3.189   2.333 -0.1766 -0.3800  0.1606
 1390SOL    HW1 5590   1.624   3.191   2.250 -1.1830  0.1210 -0.4220
 1390SOL    HW2 5591   1.565   3.282   2.356 -0.6427 -0.5020  0.4232
 1391SOL     OW 5592   4.487   3.412   5.075 -0.3564 -0.2662 -0.0226
 1391SOL    HW1 5593   4.555   3.429   5.009 -0.9909  1.5665 -0.2655
 1391SOL    HW2 5594   4.444   3.332   5.045  1.6247 -1.4487  0.1094
 1392SOL     OW 5595   0.933   7.091   0.912 -0.1787  0.0761  0.4877
 1392SOL    HW1 5596   0.892   7.072   0.828 -0.2834  0.2664  0.4958
 1392SOL    HW2 5597   1.015   7.041   0.910  0.0224  0.4163  0.0981
 1393SOL     OW 5598   7.564   5.689   4.309 -0.0708 -0.7370  0.0474
 1393SOL    HW1 5599   7.653   5.656   4.295 -0.3036 -1.7722  0.8825
 1393SOL    HW2 5600   7.575   5.761   4.371  0.4775  1.0738 -2.0282
 1394SOL     OW 5601   1.361   4.671   2.529 -0.4180 -0.3601  0.0157
 1394SOL    HW1 5602   1.432   4.642   2.586 -0.0753  0.1279 -0.1590
 1394SOL    HW2 5603   1.282   4.656   2.581 -0.0612  0.8880  0.9970
 1395SOL     OW 5604   5.374   5.387   4.666 -0.2760 -0.3678  0.2993
 1395SOL    HW1 5605   5.446   5.334   4.700 -1.0946 -0.9549  1.1551
 1395SOL    HW2 5606   5.367   5.362   4.574  0.8807  0.0133  0.0887
 1396SOL     OW 5607   7.982   0.717   5.993 -0.0487 -0.1487  0.5826
 1396SOL    HW1 5608   8.066   0.675   6.011  0.4433  0.4891 -0.2105
 1396SOL    HW2 5609   8.001   0.811   5.991 -0.8102  0.0158  0.5539
 1397SOL     OW 5610   3.174   4.837   4.126 -0.6068 -0.0982 -0.5833
 1397SOL    HW1 5611   3.151   4.927   4.105 -0.7639  0.6118  2.1495
 1397SOL    HW2 5612   3.230   4.844   4.203 -0.3661 -2.3237 -0.4913
 1398SOL     OW 5613   3.487   4.825   2.363  0.3688  0.5644  0.6090
 1398SOL    HW1 5614   3.402   4.861   2.388  0.2613  0.2723  0.6713
 1398SOL    HW2 5615   3.483   4.733   2.391  0.6288  0.4979  0.4325
 1399SOL     OW 5616   7.684   6.170   3.177  0.2244  0.4390 -1.0579
 1399SOL    HW1 5617   7.779   6.160   3.178  0.1409 -0.4721 -0.0648
 1399SOL    HW2 5618   7.669   6.256   3.139  1.4872  0.9676 -0.4067
 1400SOL     OW 5619   7.013   7.806   7.627 -0.3264 -0.5800  0.1504
 1400SOL    HW1 5620   6.962   7.743   7.575 -0.8199 -1.6665  1.8711
 1400SOL    HW2 5621   7.104   7.786   7.605 -0.5413 -0.4511 -0.9102
 1401SOL     OW 5622   0.923   3.223   6.335  0.7469  0.7470 -0.4064
 1401SOL    HW1 5623   0.916   3.247   6.427 -3.0676 -0.8010 -0.1215
 1401SOL    HW2 5624   0.845   3.260   6.294  0.9603 -0.8552 -2.4256
 1402SOL     OW 5625   4.806   0.966   6.820  0.0308 -0.0907  0.1527
 1402SOL    HW1 5626   4.806   1.051   6.778  0.7578 -0.0307  0.2516
 1402SOL    HW2 5627   4.768   0.982   6.907  0.1829  0.1411  0.1785
 1403SOL     OW 5628   3.581   5.513   2.356 -0.0560 -0.4269  0.4165
 1403SOL    HW1 5629   3.523   5.589   2.355  1.0782  0.4580 -0.4580
 1403SOL    HW2 5630   3.554   5.462   2.279 -0.1711 -0.4105  0.4460
 1404SOL     OW 5631   0.509   6.124   1.203 -0.3732  0.1567  0.2805
 1404SOL    HW1 5632   0.464   6.047   1.237 -0.8973  1.2530  2.3193
 1404SOL    HW2 5633   0.602   6.104   1.212 -0.5026 -0.3711  0.4803
 1405SOL     OW 5634   0.175   7.714   1.823  0.0071 -0.1598 -0.3744
 1405SOL    HW1 5635   0.130   7.780   1.771 -1.0647  0.6509  1.4780
 1405SOL    HW2 5636   0.210   7.652   1.759  0.2123  1.6606 -2.1160
 1406SOL     OW 5637   5.306   4.994   6.348  0.4471  0.6797  0.9541
 1406SOL    HW1 5638   5.246   4.993   6.274  0.8234 -2.4250  0.5435
 1406SOL    HW2 5639   5.356   5.075   6.337 -1.5426  1.8105 -0.4073
 1407SOL     OW 5640   5.567   6.050   3.070  0.1737 -0.0037  0.8549
 1407SOL    HW1 5641   5.576   6.145   3.056 -2.4777  0.2811  0.4815
 1407SOL    HW2 5642   5.642   6.012   3.024  0.3116  1.8193 -0.5657
 1408SOL     OW 5643   1.134   1.993   1.503  0.4590  0.5973 -0.2636
 1408SOL    HW1 5644   1.188   2.037   1.437  1.7113  0.3761  0.5912
 1408SOL    HW2 5645   1.056   1.965   1.455  1.7574 -0.3948 -1.8883
 1409SOL     OW 5646   0.412   6.685   0.059  0.0930 -0.0786  0.1440
 1409SOL    HW1 5647   0.504   6.681   0.034  0.0269 -0.8770 -0.0070
 1409SOL    HW2 5648   0.371   6.614   0.009 -0.7479  0.7607 -0.3807
 1410SOL     OW 5649   0.962   0.479   7.819  0.5262  0.1603 -0.0150
 1410SOL    HW1 5650   0.872   0.480   7.853  0.8707 -0.0281  0.9173
 1410SOL    HW2 5651   1.003   0.405   7.863  1.6306  1.2503  0.8667
 1411SOL     OW 5652   0.147   1.255   0.830 -0.1347 -0.0484  0.2889
 1411SOL    HW1 5653   0.148   1.313   0.754 -2.5455 -1.8600 -1.3133
 1411SOL    HW2 5654   0.225   1.277   0.879  0.7416  2.2503 -1.9423
 1412SOL     OW 5655   4.280   2.289   5.882 -0.0437 -0.3362  0.2491
 1412SOL    HW1 5656   4.203   2.341   5.861 -0.0913 -0.8058 -0.7622
 1412SOL    HW2 5657   4.249   2.199   5.885  0.6265 -0.6395 -1.1229
 1413SOL     OW 5658   0.532   5.452   4.671 -0.5470  0.4972  0.2344
 1413SOL    HW1 5659   0.579   5.517   4.724  0.0915  0.6448 -0.4945
 1413SOL    HW2 5660   0.477   5.505   4.612 -0.3993  0.3739 -0.0184
 1414SOL     OW 5661   5.086   3.267   4.174  0.4429  0.4483 -0.3959
 1414SOL    HW1 5662   5.000   3.301   4.195  1.2135  1.6408  0.9931
 1414SOL    HW2 5663   5.091   3.183   4.220 -0.5969 -0.5436 -1.9619
 1415SOL     OW 5664   0.265   4.036   6.626 -0.2503  0.1725  0.4552
 1415SOL    HW1 5665   0.306   4.112   6.585 -0.2358  1.1445  2.1749
 1415SOL    HW2 5666   0.335   3.973   6.636  0.0456  0.4613  0.2219
 1416SOL     OW 5667   0.012   3.064   6.534  0.0750  0.6057  0.7796
 1416SOL    HW1 5668   0.030   3.094   6.623 -2.7290  1.6681  1.0755
 1416SOL    HW2 5669   0.018   3.143   6.480  0.1403  0.2685  0.2879
 1417SOL     OW 5670   4.261   6.270   2.001  0.4528 -0.6273  0.0393
 1417SOL    HW1 5671   4.238   6.212   1.928  1.8312 -0.2642 -0.7248
 1417SOL    HW2 5672   4.272   6.212   2.076 -2.4984 -0.8635  0.3996
 1418SOL     OW 5673   7.952   6.257   7.719  0.1095 -0.0394  0.7846
 1418SOL    HW1 5674   7.950   6.186   7.654 -1.5471  0.7846 -0.1471
 1418SOL    HW2 5675   8.015   6.228   7.785  1.6163 -1.0556 -1.0210
 1419SOL     OW 5676   4.920   3.877   3.691 -0.1383 -1.4433 -0.3512
 1419SOL    HW1 5677   4.992   3.814   3.687  0.5594 -0.6396 -0.8770
 1419SOL    HW2 5678   4.905   3.890   3.785  2.8378  1.0078 -0.0371
 1420SOL     OW 5679   2.657   5.648   5.369  0.3726 -0.6343 -0.3244
 1420SOL    HW1 5680   2.639   5.588   5.296  1.6400 -0.9765 -0.3818
 1420SOL    HW2 5681   2.624   5.733   5.339 -0.2721 -1.0306 -0.7692
 1421SOL     OW 5682   6.786   6.667   2.835  0.4049  0.4031  0.6488
 1421SOL    HW1 5683   6.846   6.594   2.823  0.0674  0.3843 -1.1940
 1421SOL    HW2 5684   6.789   6.714   2.752 -0.3258  1.7846  1.3686
 1422SOL     OW 5685   0.655   7.517   5.359  0.2183  0.5106  0.0391
 1422SOL    HW1 5686   0.611   7.432   5.355  0.5384  0.3629 -0.3179
 1422SOL    HW2 5687   0.680   7.527   5.451  0.5918  0.0146 -0.0115
 1423SOL     OW 5688   4.042   4.533   2.635 -0.1285 -0.2366 -0.4886
 1423SOL    HW1 5689   3.992   4.530   2.554  1.3371  0.3442 -1.4613
 1423SOL    HW2 5690   3.989   4.585   2.695 -2.8512 -3.4584  0.1704
 1424SOL     OW 5691   2.966   3.510   0.856 -0.2771  0.3413  0.1767
 1424SOL    HW1 5692   2.916   3.464   0.789  0.7382 -0.3292 -0.1560
 1424SOL    HW2 5693   3.043   3.544   0.809 -0.8927  2.2104  0.4662
 1425SOL     OW 5694   7.980   7.285   5.775 -0.0678  0.3353  0.3445
 1425SOL    HW1 5695   7.897   7.296   5.822 -0.6998  0.1112 -0.7006
 1425SOL    HW2 5696   7.990   7.366   5.725  0.4458  0.4361  0.5981
 1426SOL     OW 5697   0.039   6.135   4.428  0.1020 -0.0965  0.3031
 1426SOL    HW1 5698  -0.049   6.153   4.395 -0.4028  0.2612  1.7998
 1426SOL    HW2 5699   0.097   6.175   4.362 -0.8122 -0.7035 -0.9176
 1427SOL     OW 5700   6.302   6.303   6.719  0.2866  0.4040  0.5778
 1427SOL    HW1 5701   6.368   6.357   6.676  1.7289 -0.0435  2.1298
 1427SOL    HW2 5702   6.281   6.349   6.800 -2.5857  1.3676 -0.5778
 1428SOL     OW 5703   4.980   0.024   3.345  0.7908 -0.2701  0.2717
 1428SOL    HW1 5704   4.917  -0.033   3.301  1.9187 -1.0073 -0.4289
 1428SOL    HW2 5705   4.955   0.020   3.438 -0.0005 -0.7804  0.0419
 1429SOL     OW 5706   1.103   1.535   2.147  0.1145  0.1904  0.4121
 1429SOL    HW1 5707   1.096   1.547   2.052 -1.5094  0.8778  0.5780
 1429SOL    HW2 5708   1.181   1.481   2.159 -0.0852 -0.5706 -1.3631
 1430SOL     OW 5709   2.741   0.008   7.167  0.2183 -0.3295  0.3497
 1430SOL    HW1 5710   2.700  -0.079   7.170 -0.7876  0.0574 -0.9267
 1430SOL    HW2 5711   2.720   0.047   7.252 -1.1240 -0.5808  0.1628
 1431SOL     OW 5712   7.390   0.716   2.870 -0.3427 -0.2235 -0.9812
 1431SOL    HW1 5713   7.372   0.761   2.953 -0.0969 -0.1422 -0.9736
 1431SOL    HW2 5714   7.425   0.631   2.897  0.5220  0.1169 -1.0053
 1432SOL     OW 5715   2.404   5.875   2.114 -0.3917 -0.1734  0.5038
 1432SOL    HW1 5716   2.311   5.901   2.112 -0.3770 -0.1231  0.4561
 1432SOL    HW2 5717   2.444   5.927   2.045 -0.4807 -0.7958 -0.0223
 1433SOL     OW 5718   1.303   0.734   3.841 -0.0856 -1.0167 -0.1768
 1433SOL    HW1 5719   1.216   0.742   3.880  0.6449  1.5869  1.1172
 1433SOL    HW2 5720   1.362   0.723   3.916  0.7553 -2.8513 -1.0368
 1434SOL     OW 5721   3.027   0.266   3.357  0.5684  0.7353 -0.1160
 1434SOL    HW1 5722   3.102   0.207   3.369 -0.4069 -0.5811 -0.2938
 1434SOL    HW2 5723   3.004   0.256   3.264 -1.0608 -0.4372  0.3812
 1435SOL     OW 5724   4.667   5.818   6.246  0.1714 -0.0919  0.3359
 1435SOL    HW1 5725   4.760   5.824   6.267 -0.0308 -0.2100  1.3132
 1435SOL    HW2 5726   4.638   5.737   6.289 -0.5149  0.2848  0.6025
 1436SOL     OW 5727   3.599   3.380   4.833  0.3166  0.6404  0.0269
 1436SOL    HW1 5728   3.534   3.405   4.899  0.3347  1.0139 -0.0951
 1436SOL    HW2 5729   3.550   3.379   4.751 -0.4536 -2.6999  0.3693
 1437SOL     OW 5730   3.680   7.727   7.946 -0.3259  0.2027  0.5658
 1437SOL    HW1 5731   3.680   7.651   8.004 -2.1629  0.8775  1.5605
 1437SOL    HW2 5732   3.658   7.692   7.860 -1.5897 -0.3747  1.1028
 1438SOL     OW 5733   1.420   6.085   7.987 -0.6016 -0.3930 -0.4605
 1438SOL    HW1 5734   1.491   6.095   7.924 -0.4909 -0.6156 -0.3741
 1438SOL    HW2 5735   1.412   6.171   8.029 -1.5818  0.1605 -1.7185
 1439SOL     OW 5736   6.080   7.046   0.301 -0.5940  0.2928  0.1120
 1439SOL    HW1 5737   6.155   7.091   0.340 -0.8992  1.4842 -0.6021
 1439SOL    HW2 5738   6.108   6.956   0.290  0.4925  0.5745  0.4644
 1440SOL     OW 5739   2.772   7.216   5.640  0.0873  0.1517 -0.1646
 1440SOL    HW1 5740   2.698   7.208   5.580  0.2027 -1.2694 -0.1353
 1440SOL    HW2 5741   2.769   7.137   5.693  1.2245  0.4100  0.3099
 1441SOL     OW 5742   3.882   4.526   8.017 -0.4941  0.2517  0.5951
 1441SOL    HW1 5743   3.895   4.575   7.936  0.2176 -1.4124 -0.3414
 1441SOL    HW2 5744   3.932   4.574   8.083  0.5210  0.5788 -0.3811
 1442SOL     OW 5745   4.141   5.738   7.631 -0.0585 -0.6526  0.1547
 1442SOL    HW1 5746   4.175   5.690   7.707  0.3717 -0.2429  0.2251
 1442SOL    HW2 5747   4.219   5.773   7.588 -0.3785  0.1692  0.2268
 1443SOL     OW 5748   6.765   4.432   1.565  0.0003  0.0001  0.1646
 1443SOL    HW1 5749   6.792   4.499   1.627 -0.5404  1.3799 -1.0297
 1443SOL    HW2 5750   6.738   4.358   1.619  2.1230  0.1065  1.4807
 1444SOL     OW 5751   7.223   8.049   6.446 -0.3177  0.2023 -0.5109
 1444SOL    HW1 5752   7.299   8.051   6.388 -0.3405  2.1120 -0.5413
 1444SOL    HW2 5753   7.167   8.119   6.413 -0.4039  1.2395  1.6880
 1445SOL     OW 5754   2.123   7.167   4.786  0.9240 -0.0729  0.6167
 1445SOL    HW1 5755   2.039   7.159   4.831 -1.4930  1.7039 -3.1198
 1445SOL    HW2 5756   2.132   7.084   4.738  1.1878 -0.1543  0.8038
 1446SOL     OW 5757   5.573   0.015   6.686 -0.5706 -0.5096 -0.0285
 1446SOL    HW1 5758   5.618   0.034   6.768 -0.3587  0.1546 -0.2926
 1446SOL    HW2 5759   5.535   0.099   6.659 -0.7546 -0.7527 -0.5380
 1447SOL     OW 5760   6.289   2.176   0.576  0.4181 -0.1705 -0.1352
 1447SOL    HW1 5761   6.321   2.150   0.489  0.5712  0.5334 -0.2956
 1447SOL    HW2 5762   6.305   2.270   0.580 -2.0511  0.3137 -0.4049
 1448SOL     OW 5763   1.892   7.364   4.909 -0.4592  0.0995  0.0744
 1448SOL    HW1 5764   1.805   7.393   4.938 -1.6106 -2.9722  0.0813
 1448SOL    HW2 5765   1.908   7.412   4.828 -1.6542  1.5254  0.6457
 1449SOL     OW 5766   2.970   5.751   0.670  0.5041  0.2157  0.4211
 1449SOL    HW1 5767   2.979   5.806   0.592  0.0742  1.5077  1.2514
 1449SOL    HW2 5768   2.885   5.708   0.660  0.3165  0.6091  0.3093
 1450SOL     OW 5769   7.874   0.433   0.455 -0.0769  0.1735  0.1863
 1450SOL    HW1 5770   7.829   0.473   0.381  0.9940  1.6554  0.2800
 1450SOL    HW2 5771   7.905   0.349   0.422  0.7851  1.0068 -1.2240
 1451SOL     OW 5772   3.376   0.867   7.182  0.4794  0.1039 -0.5492
 1451SOL    HW1 5773   3.285   0.893   7.169 -0.0751 -0.4377  1.6465
 1451SOL    HW2 5774   3.426   0.922   7.123 -1.4189 -1.2921 -3.6965
 1452SOL     OW 5775   3.110   1.793   0.485 -0.0500 -0.0739  0.4759
 1452SOL    HW1 5776   3.080   1.771   0.397 -0.4880 -0.4297  0.7126
 1452SOL    HW2 5777   3.032   1.829   0.528  0.9583  3.6560 -0.4316
 1453SOL     OW 5778   2.131   2.249   7.587 -0.0257 -0.1535 -0.3899
 1453SOL    HW1 5779   2.215   2.219   7.551  2.4788  1.3789  3.4590
 1453SOL    HW2 5780   2.146   2.340   7.610 -2.8507  0.2212  0.3531
 1454SOL     OW 5781   4.886   6.234   2.527 -0.9634  0.5547 -0.0120
 1454SOL    HW1 5782   4.960   6.218   2.585  0.3766  0.0277 -1.7757
 1454SOL    HW2 5783   4.838   6.151   2.525  0.8907 -0.5771 -2.1585
 1455SOL     OW 5784   5.986   5.282   1.513  0.4811  0.3307  0.6617
 1455SOL    HW1 5785   6.019   5.351   1.455  0.1949  0.2764  0.4349
 1455SOL    HW2 5786   6.041   5.206   1.494  1.2828  0.6893  1.4287
 1456SOL     OW 5787   5.765   5.775   0.618  0.1671 -0.3959 -0.1562
 1456SOL    HW1 5788   5.702   5.743   0.682 -0.0959  1.2522  0.4636
 1456SOL    HW2 5789   5.773   5.869   0.637  0.0371  0.1675 -2.5902
 1457SOL     OW 5790   2.028   1.641   6.056 -0.2093  0.0105 -0.5678
 1457SOL    HW1 5791   1.940   1.648   6.018 -0.1629  2.1547 -0.3988
 1457SOL    HW2 5792   2.017   1.663   6.148  0.3082 -1.1342 -0.2171
 1458SOL     OW 5793   0.923   5.434   5.166 -0.1265  0.4817 -0.0154
 1458SOL    HW1 5794   0.987   5.366   5.144 -0.7945 -0.5233  1.0764
 1458SOL    HW2 5795   0.976   5.508   5.195  0.5637 -0.9946  2.7831
 1459SOL     OW 5796   2.485   7.653   2.088  0.3117  0.3570  0.6861
 1459SOL    HW1 5797   2.554   7.683   2.147  1.6070 -1.6967  0.3012
 1459SOL    HW2 5798   2.406   7.653   2.143  1.1839 -0.0280  1.9916
 1460SOL     OW 5799   4.870   6.140   6.408  0.0160  0.0398  0.2336
 1460SOL    HW1 5800   4.915   6.218   6.376 -0.0406 -0.8559 -2.2279
 1460SOL    HW2 5801   4.863   6.083   6.331 -2.0872 -1.3820  1.3863
 1461SOL     OW 5802   4.333   5.576   3.306 -0.3543 -0.5319 -0.5545
 1461SOL    HW1 5803   4.326   5.560   3.212 -0.8788  2.1207 -1.0267
 1461SOL    HW2 5804   4.274   5.511   3.345 -0.0188 -1.7686 -2.0238
 1462SOL     OW 5805   2.616   0.701   4.986 -0.0987  0.2479  0.6414
 1462SOL    HW1 5806   2.672   0.666   4.916 -0.4502 -0.5998  0.7725
 1462SOL    HW2 5807   2.636   0.647   5.062 -0.4948  0.4759  0.9090
 1463SOL     OW 5808   0.814   8.057   3.860 -0.0504  0.1438 -0.4941
 1463SOL    HW1 5809   0.872   8.015   3.796  1.6456  1.4705  0.1034
 1463SOL    HW2 5810   0.873   8.090   3.928 -1.7520 -0.8476  1.5780
 1464SOL     OW 5811   4.006   7.957   2.604  0.3563  0.2837 -0.1102
 1464SOL    HW1 5812   3.997   7.950   2.509  1.4072  0.5478 -0.2392
 1464SOL    HW2 5813   3.920   7.930   2.638  0.5189 -1.5864 -1.0421
 1465SOL     OW 5814   2.980   4.198   2.954 -0.5235  0.2908 -0.2592
 1465SOL    HW1 5815   2.986   4.150   2.872 -0.1998  1.2827 -0.8311
 1465SOL    HW2 5816   3.049   4.264   2.949 -0.2938  0.1736  0.9506
 1466SOL     OW 5817   3.452   5.722   2.670 -0.0965 -0.1950  0.1890
 1466SOL    HW1 5818   3.450   5.719   2.766 -0.8714  2.1177  0.3036
 1466SOL    HW2 5819   3.482   5.811   2.650 -1.2767 -0.1760 -1.6873
 1467SOL     OW 5820   6.501   4.857   6.337 -0.2034  0.1485  0.3988
 1467SOL    HW1 5821   6.550   4.838   6.258  0.7751  0.9325  0.7978
 1467SOL    HW2 5822   6.545   4.933   6.375 -1.4530  0.5890  1.0086
 1468SOL     OW 5823   5.134   2.808   7.515 -0.7822 -0.1223 -0.2872
 1468SOL    HW1 5824   5.152   2.773   7.428 -2.2812  1.0051 -1.0748
 1468SOL    HW2 5825   5.133   2.731   7.572  0.4921 -0.8424 -1.1758
 1469SOL     OW 5826   6.759   6.334   7.495 -0.1575 -0.8440  0.3374
 1469SOL    HW1 5827   6.762   6.430   7.501 -0.8589 -0.8534  1.0349
 1469SOL    HW2 5828   6.827   6.304   7.555  3.7779 -0.7910 -3.5826
 1470SOL     OW 5829   0.081   0.299   3.311  0.5022 -0.0947 -0.1866
 1470SOL    HW1 5830   0.154   0.300   3.373 -0.5666 -0.2117  1.1043
 1470SOL    HW2 5831   0.045   0.211   3.318 -0.0394  0.0976 -0.5005
 1471SOL     OW 5832   0.370   1.820   2.564  0.2614 -0.1174  0.6406
 1471SOL    HW1 5833   0.318   1.764   2.623  0.7508 -0.0811  1.1177
 1471SOL    HW2 5834   0.397   1.761   2.494 -1.6518  0.1910 -0.4364
 1472SOL     OW 5835   2.565   1.478   5.995  0.2824 -0.2658 -0.2776
 1472SOL    HW1 5836   2.489   1.466   5.938  1.6133 -0.7223 -2.0633
 1472SOL    HW2 5837   2.631   1.517   5.937  2.0905 -1.8218  0.6391
 1473SOL     OW 5838   2.589   5.016   4.788  0.4478 -0.1982 -0.4554
 1473SOL    HW1 5839   2.509   5.069   4.792  1.7107  1.7935  2.5720
 1473SOL    HW2 5840   2.568   4.937   4.838  0.0744 -0.1617 -0.5500
 1474SOL     OW 5841   2.721   3.626   5.960  0.0337  0.2339 -0.4436
 1474SOL    HW1 5842   2.741   3.677   6.038  0.9312  0.7283 -0.9628
 1474SOL    HW2 5843   2.734   3.535   5.986 -1.4333  0.2584  0.4552
 1475SOL     OW 5844   1.820   4.114   4.804  0.1118 -0.5573  0.3819
 1475SOL    HW1 5845   1.863   4.170   4.739 -2.1496 -0.1721 -0.9021
 1475SOL    HW2 5846   1.844   4.025   4.778  2.0201 -0.3103  1.1647
 1476SOL     OW 5847   0.928   7.643   0.373  0.1105  0.0994 -0.0826
 1476SOL    HW1 5848   1.023   7.653   0.374  0.5399 -2.9990 -0.5897
 1476SOL    HW2 5849   0.901   7.668   0.461  1.3052  1.4667 -0.0626
 1477SOL     OW 5850   2.444   0.193   5.452  0.3109 -0.2685 -0.3576
 1477SOL    HW1 5851   2.471   0.178   5.361  2.0713 -2.5126  0.4483
 1477SOL    HW2 5852   2.490   0.126   5.502 -1.1813  0.4411  2.1304
 1478SOL     OW 5853   2.250   2.344   1.670 -0.8499 -0.0007  1.0306
 1478SOL    HW1 5854   2.165   2.312   1.639 -0.4887 -2.0230  1.9355
 1478SOL    HW2 5855   2.254   2.317   1.762 -0.2610  2.3517  1.7552
 1479SOL     OW 5856   2.023   2.448   5.472  0.8021  0.1654 -0.1311
 1479SOL    HW1 5857   2.097   2.390   5.454  0.5738  0.0396 -0.6758
 1479SOL    HW2 5858   2.013   2.500   5.392  1.6645  1.6986  0.7074
 1480SOL     OW 5859   4.062   2.008   7.412 -0.9616 -0.1956 -0.0414
 1480SOL    HW1 5860   4.101   2.050   7.335 -0.7869  0.2947  0.3109
 1480SOL    HW2 5861   4.134   1.959   7.451 -0.6788  0.7192  0.6160
 1481SOL     OW 5862   5.956   6.957   6.728 -0.1138 -0.4104  0.5626
 1481SOL    HW1 5863   6.014   6.969   6.802  0.3827  2.2498 -0.1676
 1481SOL    HW2 5864   5.998   6.889   6.675 -0.3797 -2.2001  2.5358
 1482SOL     OW 5865   0.310   4.318   4.560  0.1928  0.4348  0.5300
 1482SOL    HW1 5866   0.394   4.277   4.541  0.5549  0.5385  1.8177
 1482SOL    HW2 5867   0.328   4.412   4.553 -0.2422  0.4409 -0.8232
 1483SOL     OW 5868   2.504   0.791   5.943  0.1150 -0.5654  0.1559
 1483SOL    HW1 5869   2.459   0.781   6.027 -0.9144  0.8261 -0.1918
 1483SOL    HW2 5870   2.521   0.885   5.936 -0.8285 -0.4844 -1.6731
 1484SOL     OW 5871   7.005   7.659   1.265 -0.0018  0.6952 -0.1970
 1484SOL    HW1 5872   6.919   7.669   1.223  0.3625  0.4579 -1.0209
 1484SOL    HW2 5873   6.988   7.602   1.341 -0.4156 -0.1568 -0.9063
 1485SOL     OW 5874   2.536   3.977   0.522 -0.2845  0.1484  0.3767
 1485SOL    HW1 5875   2.613   3.977   0.579  0.0077  1.4401  0.0038
 1485SOL    HW2 5876   2.564   4.025   0.444 -1.4339  0.5116  0.1772
 1486SOL     OW 5877   2.027   5.184   7.334 -0.0328 -0.1696 -0.1329
 1486SOL    HW1 5878   2.085   5.149   7.267  1.3440  0.3482  0.7425
 1486SOL    HW2 5879   1.994   5.107   7.380 -0.1186 -0.4744 -0.7067
 1487SOL     OW 5880   0.687   8.055   2.097 -0.4340  0.5527 -0.0268
 1487SOL    HW1 5881   0.645   7.969   2.093  1.1372 -0.2305 -0.1319
 1487SOL    HW2 5882   0.677   8.082   2.188 -1.5792  0.6262 -0.1483
 1488SOL     OW 5883   2.337   3.936   7.128 -0.3502 -0.0051 -0.0495
 1488SOL    HW1 5884   2.395   3.913   7.200 -0.5294  0.6119  0.3057
 1488SOL    HW2 5885   2.304   3.853   7.094  0.7669 -0.3605 -0.2811
 1489SOL     OW 5886   0.994   8.014   6.358 -1.0724 -0.2382 -0.1876
 1489SOL    HW1 5887   1.020   7.925   6.380 -1.7854 -0.5649 -0.6196
 1489SOL    HW2 5888   1.015   8.023   6.265 -0.4622  0.2468 -0.0071
 1490SOL     OW 5889   6.734   7.214   1.375 -0.2650  0.5015  0.4162
 1490SOL    HW1 5890   6.731   7.135   1.320 -2.0425  0.3330  0.6961
 1490SOL    HW2 5891   6.785   7.189   1.451 -0.3324 -0.2137  0.2298
 1491SOL     OW 5892   7.547   2.359   8.043 -0.5758 -0.1627 -0.2159
 1491SOL    HW1 5893   7.534   2.432   7.983  0.4015 -0.2272 -0.5106
 1491SOL    HW2 5894   7.469   2.305   8.031 -0.1829 -0.4156 -1.7724
 1492SOL     OW 5895   3.769   6.406   0.302  0.8388  0.2971 -0.4432
 1492SOL    HW1 5896   3.698   6.345   0.281  1.0959  0.0794 -0.6867
 1492SOL    HW2 5897   3.811   6.424   0.218  1.8684 -0.5705 -0.1323
 1493SOL     OW 5898   4.328   4.754   4.228 -0.1029 -0.2057 -0.5876
 1493SOL    HW1 5899   4.260   4.812   4.193  0.0809  0.5895  0.3306
 1493SOL    HW2 5900   4.387   4.813   4.275  0.9346 -0.9617 -0.9247
 1494SOL     OW 5901   4.644   2.468   6.815  0.6594  0.7215  0.2390
 1494SOL    HW1 5902   4.686   2.396   6.768  2.2129  2.3359 -0.9756
 1494SOL    HW2 5903   4.715   2.510   6.863 -0.1254  1.6956  0.5833
 1495SOL     OW 5904   0.657   1.235   6.554 -0.2583 -0.3529  0.0454
 1495SOL    HW1 5905   0.611   1.265   6.476 -2.9414 -0.3698  1.4963
 1495SOL    HW2 5906   0.717   1.168   6.523 -0.3089  0.5458 -2.1374
 1496SOL     OW 5907   4.303   5.995   0.791 -0.1353  0.1662  0.1821
 1496SOL    HW1 5908   4.382   6.039   0.823 -0.0590  0.4863 -0.4261
 1496SOL    HW2 5909   4.307   6.006   0.696 -0.7926 -0.0210  0.1312
 1497SOL     OW 5910   0.968   0.124   2.205 -0.4226  0.5956 -0.0827
 1497SOL    HW1 5911   0.959   0.087   2.117 -0.3888  1.1474 -0.3173
 1497SOL    HW2 5912   1.034   0.192   2.196  0.1891  0.0934  0.5489
 1498SOL     OW 5913   1.916   3.543   6.371  0.1362  0.1466 -0.3748
 1498SOL    HW1 5914   1.918   3.447   6.370  0.2720  0.1303  0.8726
 1498SOL    HW2 5915   1.890   3.566   6.282 -0.6473 -1.0740 -0.4933
 1499SOL     OW 5916   0.513   7.431   4.084  0.1267 -0.5086 -0.6002
 1499SOL    HW1 5917   0.554   7.505   4.039  0.3212 -0.5786 -0.5392
 1499SOL    HW2 5918   0.467   7.384   4.014 -1.6959  0.7782 -0.3423
 1500SOL     OW 5919   4.016   5.919   5.754  0.1513  0.1336  0.2078
 1500SOL    HW1 5920   4.099   5.956   5.783 -0.1283  0.6375  0.3866
 1500SOL    HW2 5921   4.026   5.910   5.659  0.8292 -0.9153  0.3570
 1501SOL     OW 5922   1.722   4.732   0.908  0.2697 -0.2321 -0.3016
 1501SOL    HW1 5923   1.785   4.666   0.938  1.9959  0.8972 -1.1962
 1501SOL    HW2 5924   1.735   4.734   0.813 -1.8461 -0.6089 -0.6431
 1502SOL     OW 5925   1.719   6.377   6.574 -0.2751 -0.3831  0.0478
 1502SOL    HW1 5926   1.727   6.425   6.492  1.3737  0.0066  0.4025
 1502SOL    HW2 5927   1.722   6.445   6.642 -0.4155 -0.8016  0.4789
 1503SOL     OW 5928   1.940   4.264   5.611 -0.0095 -0.2668  0.2435
 1503SOL    HW1 5929   1.851   4.291   5.632  0.2613 -0.3280  1.5524
 1503SOL    HW2 5930   1.937   4.243   5.518 -1.3924 -0.3753  0.2890
 1504SOL     OW 5931   3.140   5.793   0.879  0.2509  0.1937 -0.0463
 1504SOL    HW1 5932   3.110   5.735   0.949  1.2523  1.9086  1.9075
 1504SOL    HW2 5933   3.069   5.790   0.814 -1.7956  0.2239  2.0568
 1505SOL     OW 5934   6.007   7.695   6.378  0.5424 -0.0717  0.6082
 1505SOL    HW1 5935   6.086   7.744   6.401 -1.4228  3.6173  0.1554
 1505SOL    HW2 5936   6.022   7.668   6.287  1.6131 -0.3010  0.8291
 1506SOL     OW 5937   2.661   6.143   5.206 -0.7291 -0.2865 -0.5247
 1506SOL    HW1 5938   2.754   6.131   5.187 -0.2561  2.1661 -0.0936
 1506SOL    HW2 5939   2.648   6.098   5.290  0.4526  0.5564  0.1479
 1507SOL     OW 5940   6.303   5.803   2.068  0.5344  0.3442  0.0569
 1507SOL    HW1 5941   6.249   5.756   2.131 -1.9543  2.6318 -0.1680
 1507SOL    HW2 5942   6.260   5.790   1.984  1.1113  1.1303 -0.3760
 1508SOL     OW 5943   0.177   3.561   1.280  0.2366  0.1656  0.5013
 1508SOL    HW1 5944   0.234   3.635   1.301  1.0634 -0.2807 -0.1461
 1508SOL    HW2 5945   0.135   3.586   1.198  1.6819 -0.7246 -0.5341
 1509SOL     OW 5946   3.996   1.557   2.252 -0.1868 -0.3221  0.0299
 1509SOL    HW1 5947   3.935   1.526   2.185 -0.9387 -2.9593  1.8063
 1509SOL    HW2 5948   4.050   1.622   2.207 -0.2918 -2.3307 -3.2722
 1510SOL     OW 5949   4.599   5.130   1.859 -0.1646 -0.0272  0.4557
 1510SOL    HW1 5950   4.672   5.109   1.917  1.0624 -1.4344 -1.4676
 1510SOL    HW2 5951   4.538   5.056   1.870 -0.6890  0.4859  1.0751
 1511SOL     OW 5952   6.930   4.771   1.187 -0.1476  0.2782  0.0492
 1511SOL    HW1 5953   6.978   4.700   1.144  1.6580  0.5996  1.3999
 1511SOL    HW2 5954   6.916   4.836   1.119 -2.1365 -1.4254 -1.3130
 1512SOL     OW 5955   7.053   6.031   4.030 -0.0199 -0.0334 -0.0430
 1512SOL    HW1 5956   7.010   6.109   4.066 -1.2894 -0.3365 -0.8847
 1512SOL    HW2 5957   7.107   5.999   4.103 -1.8563 -0.1433  1.3518
 1513SOL     OW 5958   7.521   1.963   0.548 -0.2498  0.4644 -0.6822
 1513SOL    HW1 5959   7.570   1.882   0.537  0.3654  0.9437 -1.5636
 1513SOL    HW2 5960   7.552   2.019   0.477 -0.5841  1.5133 -0.0068
 1514SOL     OW 5961   7.113   7.024   0.047 -0.0144  0.3190 -0.2557
 1514SOL    HW1 5962   7.200   6.990   0.025  0.2255 -0.0489  1.1662
 1514SOL    HW2 5963   7.118   7.117   0.028  0.7302  0.3159 -0.0969
 1515SOL     OW 5964   5.727   1.063   4.864 -0.6856  0.1950  0.5156
 1515SOL    HW1 5965   5.653   1.022   4.820 -0.1889  1.2636 -1.4441
 1515SOL    HW2 5966   5.689   1.138   4.909 -0.9185  0.2839  0.1781
 1516SOL     OW 5967   3.223   7.717   1.578  1.0583 -0.2145  0.3260
 1516SOL    HW1 5968   3.148   7.735   1.636  0.6505 -1.1352  0.1014
 1516SOL    HW2 5969   3.292   7.774   1.610  0.0999  1.0547  0.2116
 1517SOL     OW 5970   4.560   2.027   6.744  0.2831  0.3071  0.2393
 1517SOL    HW1 5971   4.508   2.004   6.667  2.5952 -1.2602 -0.9755
 1517SOL    HW2 5972   4.581   2.119   6.732 -0.8061  0.5322 -0.0841
 1518SOL     OW 5973   1.477   6.696   0.154  0.1861  0.3679 -0.2360
 1518SOL    HW1 5974   1.484   6.616   0.205  1.3176  0.1858 -0.6547
 1518SOL    HW2 5975   1.511   6.673   0.068  0.7569  1.3612 -0.2882
 1519SOL     OW 5976   2.938   3.493   1.244  0.3945 -0.3611 -0.0401
 1519SOL    HW1 5977   2.888   3.412   1.249  1.2811 -0.9240  0.0823
 1519SOL    HW2 5978   2.879   3.556   1.203 -0.3156 -1.0628 -0.1211
 1520SOL     OW 5979   3.605   7.689   5.160  0.2347  0.2948  0.4845
 1520SOL    HW1 5980   3.653   7.763   5.124 -0.1615  0.3762  0.1081
 1520SOL    HW2 5981   3.533   7.675   5.098  1.1328 -1.3247 -0.2554
 1521SOL     OW 5982   5.326   6.219   4.145 -0.9904  0.3699  0.1482
 1521SOL    HW1 5983   5.289   6.223   4.233  0.2969 -1.0347  0.8107
 1521SOL    HW2 5984   5.310   6.129   4.117 -0.7034  0.5889 -0.7360
 1522SOL     OW 5985   6.263   3.690   6.447  0.1266 -0.3019 -0.2057
 1522SOL    HW1 5986   6.228   3.667   6.534  0.4514 -0.8550 -0.2105
 1522SOL    HW2 5987   6.298   3.778   6.458 -1.2280  0.2650 -0.2008
 1523SOL     OW 5988   0.529   5.745   5.896 -0.0036  0.1900  0.1628
 1523SOL    HW1 5989   0.512   5.652   5.910  3.2398 -0.6629 -0.6189
 1523SOL    HW2 5990   0.512   5.758   5.802 -0.0711  0.3051  0.1904
 1524SOL     OW 5991   6.753   7.981   7.495  0.3853 -0.1792 -0.1864
 1524SOL    HW1 5992   6.749   7.939   7.581 -0.1509 -0.8623 -0.5395
 1524SOL    HW2 5993   6.745   7.909   7.433 -0.7397  0.4617 -0.8009
 1525SOL     OW 5994   5.021   4.544   6.174 -0.0973 -0.0884  0.1815
 1525SOL    HW1 5995   5.026   4.612   6.241  2.7005 -0.0473  0.0606
 1525SOL    HW2 5996   5.087   4.570   6.109  0.4758 -2.4610 -0.2802
 1526SOL     OW 5997   0.242   2.758   7.348 -0.4869 -0.0642 -0.2407
 1526SOL    HW1 5998   0.302   2.818   7.303  1.4621 -0.5695  1.5305
 1526SOL    HW2 5999   0.233   2.795   7.436 -0.0877 -1.7805  0.5579
 1527SOL     OW 6000   5.408   1.897   2.469  0.4082  0.1213  0.2497
 1527SOL    HW1 6001   5.481   1.954   2.492 -1.5015  2.5891  0.6650
 1527SOL    HW2 6002   5.363   1.944   2.398 -0.6570 -1.4259 -0.1560
 1528SOL     OW 6003   0.065   4.725   1.710  0.2012 -0.8281 -0.0737
 1528SOL    HW1 6004   0.034   4.637   1.731  0.5018 -1.3919 -1.8771
 1528SOL    HW2 6005  -0.013   4.773   1.684  0.1637 -0.8094  0.0717
 1529SOL     OW 6006   4.799   1.753   7.048 -0.2815  0.5322 -0.2092
 1529SOL    HW1 6007   4.775   1.720   7.135  0.8436 -3.3330 -1.1488
 1529SOL    HW2 6008   4.717   1.783   7.010 -1.5092 -1.2230  0.8918
 1530SOL     OW 6009   7.662   7.444   6.889 -0.3574  0.1859 -0.0813
 1530SOL    HW1 6010   7.632   7.459   6.799  0.1385 -1.6126 -0.5710
 1530SOL    HW2 6011   7.622   7.361   6.914  1.0301 -0.2804  0.6699
 1531SOL     OW 6012   1.917   4.854   6.772 -0.2505 -0.2006  0.0482
 1531SOL    HW1 6013   1.851   4.914   6.806 -1.4488 -1.3719 -0.1594
 1531SOL    HW2 6014   1.903   4.772   6.819  1.6991 -0.2258  0.7048
 1532SOL     OW 6015   6.075   6.908   2.923  0.1945  1.2050  0.0679
 1532SOL    HW1 6016   6.148   6.871   2.875 -1.1885 -0.5480 -0.8006
 1532SOL    HW2 6017   6.027   6.960   2.859 -0.1771  1.0454  0.2085
 1533SOL     OW 6018   8.021   4.432   4.997 -0.7295  0.3649 -0.3023
 1533SOL    HW1 6019   7.989   4.406   4.910 -0.0685 -2.0909  0.1095
 1533SOL    HW2 6020   7.944   4.469   5.039 -1.2190  1.0483 -1.7185
 1534SOL     OW 6021   3.155   4.533   7.772 -0.4695 -0.2712 -0.0873
 1534SOL    HW1 6022   3.060   4.527   7.774 -0.4096 -2.2827  3.1577
 1534SOL    HW2 6023   3.175   4.610   7.825 -0.2322  0.3945 -1.1052
 1535SOL     OW 6024   3.801   2.599   0.454  0.3972 -0.2536  0.5089
 1535SOL    HW1 6025   3.821   2.520   0.403 -1.9575  0.3009 -1.4505
 1535SOL    HW2 6026   3.864   2.664   0.422  1.0549 -0.7930  0.6856
 1536SOL     OW 6027   5.834   7.284   3.787 -0.0436  0.1626  0.0058
 1536SOL    HW1 6028   5.819   7.195   3.819 -2.4097  0.0628 -1.1290
 1536SOL    HW2 6029   5.838   7.337   3.866 -1.9588 -0.5646  0.6700
 1537SOL     OW 6030   1.852   3.886   0.717 -0.3725 -0.4246 -0.1551
 1537SOL    HW1 6031   1.827   3.922   0.802 -0.7478 -1.7523  0.3164
 1537SOL    HW2 6032   1.824   3.952   0.654 -2.4974 -0.5703  0.5697
 1538SOL     OW 6033   0.578   6.773   5.794 -0.5649  0.0732  0.0708
 1538SOL    HW1 6034   0.658   6.775   5.741 -0.8699 -0.7210 -0.4320
 1538SOL    HW2 6035   0.609   6.783   5.884 -0.0448  1.5250 -0.2466
 1539SOL     OW 6036   7.181   7.883   6.927  0.3616  0.2808 -0.1545
 1539SOL    HW1 6037   7.143   7.917   6.846 -0.4133  0.0472  0.1058
 1539SOL    HW2 6038   7.215   7.796   6.904 -1.9715 -0.8172  0.2952
 1540SOL     OW 6039   7.923   3.569   5.820 -0.3219 -0.1270  0.2010
 1540SOL    HW1 6040   7.973   3.619   5.884 -0.0190  0.4379 -0.4650
 1540SOL    HW2 6041   7.958   3.480   5.827  0.5392  0.1836 -0.0043
 1541SOL     OW 6042   4.939   0.974   0.021 -0.9963 -0.2522  0.6429
 1541SOL    HW1 6043   4.971   1.056   0.058 -0.3886  1.1037 -2.5524
 1541SOL    HW2 6044   4.847   0.991   0.001 -0.2945  0.5978 -2.1968
 1542SOL     OW 6045   3.620   6.284   6.188  0.0815 -0.0865 -0.5142
 1542SOL    HW1 6046   3.530   6.306   6.164  0.0364  0.3000  0.0152
 1542SOL    HW2 6047   3.671   6.302   6.108 -0.0711  1.1786 -0.3473
 1543SOL     OW 6048   0.186   3.546   2.578 -0.3626 -0.3864 -0.2275
 1543SOL    HW1 6049   0.173   3.573   2.487 -1.1099  0.8926  0.2195
 1543SOL    HW2 6050   0.275   3.573   2.599 -0.1530 -0.7813 -0.6090
 1544SOL     OW 6051   4.747   3.290   0.390 -0.4620 -0.5824 -0.0023
 1544SOL    HW1 6052   4.826   3.241   0.412  0.6010  0.1586 -1.9383
 1544SOL    HW2 6053   4.687   3.274   0.464  1.6243 -0.8015  1.7310
 1545SOL     OW 6054   1.897   4.484   3.185 -0.4818  0.2377  0.2949
 1545SOL    HW1 6055   1.866   4.394   3.179  1.0485 -0.2360 -1.6101
 1545SOL    HW2 6056   1.839   4.534   3.128 -0.5101  0.2139  0.3029
 1546SOL     OW 6057   4.843   4.881   2.322 -0.2076  0.0935 -0.1158
 1546SOL    HW1 6058   4.776   4.888   2.391 -0.2624 -3.4755  0.3990
 1546SOL    HW2 6059   4.926   4.891   2.368 -0.2650  1.9471 -0.3317
 1547SOL     OW 6060   2.197   4.111   7.996  0.4357  0.1488  0.5105
 1547SOL    HW1 6061   2.156   4.029   8.025  0.7880  0.0769  0.8147
 1547SOL    HW2 6062   2.257   4.084   7.926 -1.1625  0.4484 -1.0455
 1548SOL     OW 6063   6.473   7.276   1.176 -0.0022 -0.2912 -0.6287
 1548SOL    HW1 6064   6.548   7.228   1.143 -0.1025 -0.3804 -0.7266
 1548SOL    HW2 6065   6.428   7.309   1.098  0.4944  0.6202 -0.5448
 1549SOL     OW 6066   3.780   4.489   4.012  0.0495 -0.1096 -0.3860
 1549SOL    HW1 6067   3.727   4.464   4.088  0.0030  0.2726 -0.2897
 1549SOL    HW2 6068   3.757   4.581   3.996  0.7094  0.0732 -0.3192
 1550SOL     OW 6069   7.216   0.354   0.554  0.1608 -0.2343 -0.0249
 1550SOL    HW1 6070   7.223   0.269   0.511 -4.7208 -0.7457 -0.3338
 1550SOL    HW2 6071   7.224   0.335   0.647 -0.7423 -1.0295 -0.0991
 1551SOL     OW 6072   2.853   1.502   5.273  0.0390 -0.5766 -0.6080
 1551SOL    HW1 6073   2.815   1.449   5.203 -4.1897  2.4898 -1.1141
 1551SOL    HW2 6074   2.864   1.589   5.233  0.0203  0.6132  1.7688
 1552SOL     OW 6075   5.210   6.943   3.148  0.3830 -0.1212 -0.6269
 1552SOL    HW1 6076   5.182   6.966   3.059 -1.2130 -1.4628 -0.5095
 1552SOL    HW2 6077   5.183   7.018   3.202 -1.8215 -0.7719 -0.7481
 1553SOL     OW 6078   7.492   4.918   1.356 -0.0888  0.1169  0.0459
 1553SOL    HW1 6079   7.566   4.857   1.348  1.2088  1.6452 -0.0135
 1553SOL    HW2 6080   7.531   5.004   1.344 -2.3598  0.8626 -3.2146
 1554SOL     OW 6081   6.159   0.199   1.986  0.5856 -0.4471  0.6225
 1554SOL    HW1 6082   6.069   0.230   1.987  0.8103  0.2335  1.2379
 1554SOL    HW2 6083   6.197   0.234   2.067  1.9233  0.9069 -0.5144
 1555SOL     OW 6084   1.339   3.170   3.382 -0.3135  0.1311 -0.1846
 1555SOL    HW1 6085   1.330   3.234   3.311  0.5710 -0.1055 -0.5286
 1555SOL    HW2 6086   1.305   3.214   3.459 -0.5396  0.6861 -0.5942
 1556SOL     OW 6087   1.030   7.706   0.938 -0.2836 -0.1286 -0.3867
 1556SOL    HW1 6088   0.973   7.636   0.907 -0.5264 -0.1004 -0.0105
 1556SOL    HW2 6089   1.034   7.769   0.866 -0.9913  0.0280 -0.2961
 1557SOL     OW 6090   7.813   0.348   2.790 -0.7332 -0.1092  0.0500
 1557SOL    HW1 6091   7.803   0.326   2.697 -2.1901 -1.6079  0.5118
 1557SOL    HW2 6092   7.769   0.277   2.836  0.1551  0.4818  1.9204
 1558SOL     OW 6093   2.961   3.716   3.248  0.2054 -0.0595  0.3721
 1558SOL    HW1 6094   2.897   3.660   3.204 -0.1948 -0.2887  1.2163
 1558SOL    HW2 6095   3.045   3.694   3.207 -0.1679 -0.2128 -0.3111
 1559SOL     OW 6096   2.233   1.104   2.055 -0.3531 -0.2075 -0.2312
 1559SOL    HW1 6097   2.262   1.027   2.007  1.1185 -0.0598  0.3944
 1559SOL    HW2 6098   2.238   1.079   2.147  1.5176  1.0403  0.0613
 1560SOL     OW 6099   0.674   0.368   0.884 -0.5801  0.1738  0.0993
 1560SOL    HW1 6100   0.637   0.289   0.844  1.1824 -0.6581  0.0314
 1560SOL    HW2 6101   0.601   0.406   0.933 -1.1068 -2.3947  1.4943
 1561SOL     OW 6102   5.645   7.360   1.717  0.3978  0.0259 -0.5617
 1561SOL    HW1 6103   5.557   7.395   1.702  0.2276  0.1853  0.7042
 1561SOL    HW2 6104   5.655   7.292   1.650 -1.7242 -1.7710  0.7798
 1562SOL     OW 6105   2.243   5.468   4.537  0.3474 -0.5958  0.4552
 1562SOL    HW1 6106   2.191   5.464   4.618 -0.9641  1.3123 -0.2355
 1562SOL    HW2 6107   2.180   5.451   4.467  1.3319 -1.5323 -0.2348
 1563SOL     OW 6108   4.180   7.778   2.213  0.2336  0.2542 -0.2007
 1563SOL    HW1 6109   4.262   7.770   2.261  0.1237 -1.2955 -0.2233
 1563SOL    HW2 6110   4.114   7.798   2.280 -0.0027 -2.3446  0.4751
 1564SOL     OW 6111   4.508   3.399   3.873 -0.2115 -0.3230 -0.0491
 1564SOL    HW1 6112   4.599   3.419   3.851 -0.3811  0.9998  0.4079
 1564SOL    HW2 6113   4.457   3.435   3.801 -0.5385  1.3064  0.9333
 1565SOL     OW 6114   3.101   5.302   0.055  0.1848 -0.5374 -0.2957
 1565SOL    HW1 6115   3.181   5.284   0.006  0.9615 -0.1132  0.7637
 1565SOL    HW2 6116   3.130   5.358   0.127 -1.1117 -0.2027 -0.0150
 1566SOL     OW 6117   3.897   1.173   6.230  0.0640  0.4451  0.3445
 1566SOL    HW1 6118   3.838   1.102   6.205 -2.2743  2.0340  1.0585
 1566SOL    HW2 6119   3.904   1.166   6.325  1.2590  0.1483  0.2541
 1567SOL     OW 6120   4.455   6.818   7.789  0.1205 -0.2898 -0.0386
 1567SOL    HW1 6121   4.373   6.773   7.811  0.7754 -1.8556 -0.6434
 1567SOL    HW2 6122   4.499   6.828   7.874 -0.2486 -0.3399  0.1658
 1568SOL     OW 6123   1.606   4.498   1.501  0.7650  0.4355  0.1421
 1568SOL    HW1 6124   1.660   4.483   1.424  0.4924  1.2212 -0.2111
 1568SOL    HW2 6125   1.665   4.483   1.575  0.3137 -3.3910 -0.0500
 1569SOL     OW 6126   6.044   6.219   6.191  0.6947  0.5945  0.0950
 1569SOL    HW1 6127   6.126   6.215   6.143  1.0982  0.4711  0.7867
 1569SOL    HW2 6128   6.060   6.171   6.272  0.9645  3.2361  1.7386
 1570SOL     OW 6129   1.373   2.938   3.853  0.0787  0.6566 -0.4643
 1570SOL    HW1 6130   1.345   2.852   3.885 -0.4389  0.5311 -1.2238
 1570SOL    HW2 6131   1.352   2.936   3.759  2.7534  0.5306 -1.1258
 1571SOL     OW 6132   2.074   2.515   7.654  0.3408  0.7518 -0.8542
 1571SOL    HW1 6133   2.063   2.541   7.563 -0.5976  1.9204 -0.4288
 1571SOL    HW2 6134   2.059   2.595   7.704  1.6864  0.3200  0.2993
 1572SOL     OW 6135   5.764   4.378   7.214 -0.0471  0.6055  0.0608
 1572SOL    HW1 6136   5.757   4.469   7.188  2.1922  0.5783 -0.8183
 1572SOL    HW2 6137   5.797   4.333   7.136 -2.4416 -1.2651 -0.0006
 1573SOL     OW 6138   1.106   0.909   7.435  0.1912  0.2132  0.0579
 1573SOL    HW1 6139   1.096   1.002   7.454  0.2752  0.7599 -2.3039
 1573SOL    HW2 6140   1.201   0.897   7.424  0.1334 -0.0040 -0.2386
 1574SOL     OW 6141   5.239   3.504   3.520 -0.0059 -0.0549 -0.2318
 1574SOL    HW1 6142   5.263   3.538   3.434 -0.3566 -0.4410 -0.4876
 1574SOL    HW2 6143   5.260   3.411   3.515 -0.1168 -0.0975  0.0681
 1575SOL     OW 6144   4.247   2.315   0.783  0.2075 -0.2793  0.3754
 1575SOL    HW1 6145   4.174   2.321   0.722  1.1236 -0.1269 -0.7433
 1575SOL    HW2 6146   4.319   2.279   0.730  1.0856  0.0668  1.3074
 1576SOL     OW 6147   3.525   0.876   0.649 -0.2752 -0.0132 -0.2275
 1576SOL    HW1 6148   3.515   0.798   0.702 -2.7036  0.4897  0.1339
 1576SOL    HW2 6149   3.446   0.880   0.596 -0.6506  2.6736  0.4112
 1577SOL     OW 6150   2.901   7.809   0.666  0.4170  0.0706 -0.6502
 1577SOL    HW1 6151   2.966   7.740   0.655 -0.7122 -1.0181 -0.6556
 1577SOL    HW2 6152   2.840   7.796   0.593 -1.5386 -0.9058  1.0529
 1578SOL     OW 6153   0.330   2.546   7.171 -0.5061 -0.1670 -0.0417
 1578SOL    HW1 6154   0.333   2.617   7.235  1.0556  1.0354 -1.3638
 1578SOL    HW2 6155   0.421   2.516   7.164 -1.1071 -2.2677  0.3850
 1579SOL     OW 6156   6.878   2.645   0.907  0.5662  0.1478  0.5011
 1579SOL    HW1 6157   6.830   2.715   0.864  1.2434 -0.6004 -1.6374
 1579SOL    HW2 6158   6.933   2.608   0.838  1.5582 -1.3270  1.9908
 1580SOL     OW 6159   7.248   3.197   1.168  0.0269  0.3844 -0.2366
 1580SOL    HW1 6160   7.264   3.103   1.161 -0.6331  0.3022 -0.7516
 1580SOL    HW2 6161   7.277   3.233   1.084 -0.3211  0.5513 -0.2867
 1581SOL     OW 6162   1.748   6.791   0.002  0.7602 -0.3923 -0.0848
 1581SOL    HW1 6163   1.713   6.753  -0.079 -1.2098  0.0374  0.5067
 1581SOL    HW2 6164   1.773   6.716   0.055 -0.3663 -0.7902 -0.0885
 1582SOL     OW 6165   4.116   5.409   2.429 -0.0585 -0.2515 -0.2835
 1582SOL    HW1 6166   4.117   5.331   2.373 -1.1031 -1.7546  1.6606
 1582SOL    HW2 6167   4.128   5.482   2.368  0.0229 -1.8481 -2.3089
 1583SOL     OW 6168   1.792   5.146   1.853  0.1148  0.5070 -0.5319
 1583SOL    HW1 6169   1.811   5.207   1.781  0.8447  0.0817 -0.7178
 1583SOL    HW2 6170   1.782   5.061   1.810 -1.0456  0.5103 -0.2893
 1584SOL     OW 6171   1.781   1.747   3.505 -0.0168 -0.1693 -0.0766
 1584SOL    HW1 6172   1.751   1.772   3.418  0.8755  1.0617 -0.0609
 1584SOL    HW2 6173   1.770   1.652   3.508 -1.5565 -0.0483 -0.9323
 1585SOL     OW 6174   3.364   0.313   1.925  0.3131 -0.3847 -0.1322
 1585SOL    HW1 6175   3.299   0.381   1.908  0.1437 -0.2303  1.0989
 1585SOL    HW2 6176   3.324   0.257   1.992 -0.0085 -2.3486 -1.8568
 1586SOL     OW 6177   4.878   1.258   6.992  0.1339  0.2712 -0.2487
 1586SOL    HW1 6178   4.808   1.219   6.940 -0.2954  1.2153 -0.3993
 1586SOL    HW2 6179   4.904   1.336   6.944  0.0623  0.8979  0.6988
 1587SOL     OW 6180   1.244   5.759   1.777 -0.5802 -0.2535 -0.3198
 1587SOL    HW1 6181   1.307   5.830   1.774 -1.2379  0.4858  1.8510
 1587SOL    HW2 6182   1.294   5.681   1.753  1.0783  0.3708  0.9562
 1588SOL     OW 6183   5.172   6.578   7.494 -0.0570  0.6970  0.0812
 1588SOL    HW1 6184   5.086   6.583   7.450 -1.1002 -0.8388  1.8306
 1588SOL    HW2 6185   5.158   6.621   7.578  0.9766  0.5965  0.3140
 1589SOL     OW 6186   3.603   1.184   2.413  0.1797 -0.4258  0.1649
 1589SOL    HW1 6187   3.689   1.202   2.450 -0.1436  1.0395  0.2503
 1589SOL    HW2 6188   3.621   1.139   2.330  1.1536  1.7777 -0.9099
 1590SOL     OW 6189   7.436   2.755   6.041 -0.0866 -0.1214 -0.4913
 1590SOL    HW1 6190   7.517   2.755   6.091 -0.8886 -0.2271  0.8365
 1590SOL    HW2 6191   7.444   2.681   5.981  0.8769  0.0108 -0.5331
 1591SOL     OW 6192   6.572   1.778   7.507 -0.0108 -0.2524  0.1142
 1591SOL    HW1 6193   6.644   1.728   7.468 -1.4275 -0.9004 -1.8087
 1591SOL    HW2 6194   6.556   1.734   7.591  0.4431 -1.4655 -0.4056
 1592SOL     OW 6195   6.196   3.941   7.311 -0.1448 -0.0790  0.0729
 1592SOL    HW1 6196   6.108   3.924   7.276  0.2275  0.7991 -1.3846
 1592SOL    HW2 6197   6.181   3.996   7.387 -0.9016 -0.7933  0.4629
 1593SOL     OW 6198   1.224   1.641   1.368 -0.2048 -0.2406 -0.2250
 1593SOL    HW1 6199   1.162   1.654   1.296 -2.0903 -1.7357  1.0246
 1593SOL    HW2 6200   1.186   1.688   1.442  1.2509  0.5353  0.0669
 1594SOL     OW 6201   0.979   1.649   4.607 -0.3066 -0.2316  0.2750
 1594SOL    HW1 6202   0.918   1.715   4.638  1.0208  1.2718 -0.2008
 1594SOL    HW2 6203   0.928   1.599   4.542 -1.5657 -0.2263  1.2138
 1595SOL     OW 6204   7.308   5.199   0.910  0.8127  1.0445  0.5804
 1595SOL    HW1 6205   7.372   5.206   0.840 -1.5588 -0.1064 -1.8868
 1595SOL    HW2 6206   7.357   5.162   0.984  3.0773  0.7322 -0.9807
 1596SOL     OW 6207   0.132   0.364   1.044  0.5309  0.3162  0.0633
 1596SOL    HW1 6208   0.163   0.296   1.104  1.9786  0.9170  0.0525
 1596SOL    HW2 6209   0.202   0.373   0.980 -0.4421  0.5731 -0.9838
 1597SOL     OW 6210   7.835   7.748   5.083 -0.6704  0.1734 -0.0198
 1597SOL    HW1 6211   7.759   7.689   5.086 -1.6914  1.4300 -0.1623
 1597SOL    HW2 6212   7.812   7.813   5.016  0.3964  0.7674  0.1700
 1598SOL     OW 6213   1.342   6.617   3.720  0.3433 -0.2427  0.1537
 1598SOL    HW1 6214   1.328   6.654   3.807 -2.7714 -1.4839  0.3033
 1598SOL    HW2 6215   1.279   6.663   3.664  0.2041 -1.5298 -0.7876
 1599SOL     OW 6216   7.968   3.532   6.539 -0.5049  0.0295  0.4008
 1599SOL    HW1 6217   7.990   3.443   6.512  0.7538  0.9557 -1.9606
 1599SOL    HW2 6218   8.053   3.574   6.551 -1.0602  1.2201  0.2653
 1600SOL     OW 6219   0.218   6.515   6.430 -0.5739  0.5955  0.3168
 1600SOL    HW1 6220   0.217   6.543   6.338  0.5768  0.6531  0.3170
 1600SOL    HW2 6221   0.133   6.472   6.442 -1.1479  1.4508 -0.4995
 1601SOL     OW 6222   2.527   7.911   3.527 -0.2752  0.7622 -0.4870
 1601SOL    HW1 6223   2.448   7.956   3.497  0.0719  1.3554 -0.5285
 1601SOL    HW2 6224   2.582   7.981   3.564  0.3253  0.3903 -0.6663
 1602SOL     OW 6225   1.519   7.036   1.721  0.4550 -0.1759 -0.3705
 1602SOL    HW1 6226   1.430   7.013   1.695 -0.5394  1.6650  1.1821
 1602SOL    HW2 6227   1.525   7.009   1.813  0.5536  2.0737  0.3302
 1603SOL     OW 6228   1.092   2.166   7.459 -0.1576  0.0484 -0.0683
 1603SOL    HW1 6229   1.093   2.074   7.484  0.0612  0.0857  0.0638
 1603SOL    HW2 6230   1.002   2.182   7.429 -0.2254 -0.1784  0.0122
 1604SOL     OW 6231   3.340   7.509   1.045 -0.4803  0.6046  0.3295
 1604SOL    HW1 6232   3.424   7.537   1.008  0.0913 -0.3131  0.8847
 1604SOL    HW2 6233   3.341   7.413   1.037 -1.8584  0.6357 -0.4530
 1605SOL     OW 6234   4.616   2.420   1.668 -0.0220  0.0183 -0.3211
 1605SOL    HW1 6235   4.544   2.434   1.729  1.0435  1.9074  0.5957
 1605SOL    HW2 6236   4.644   2.508   1.643  1.4545 -0.6776 -1.2837
 1606SOL     OW 6237   1.966   3.538   4.594  0.0675 -0.0473  0.2542
 1606SOL    HW1 6238   1.952   3.447   4.566 -0.4102 -0.1994  0.9635
 1606SOL    HW2 6239   2.011   3.579   4.520  0.4288 -0.8992 -0.0102
 1607SOL     OW 6240   5.979   7.713   4.790  0.1473 -0.8882  0.4337
 1607SOL    HW1 6241   5.929   7.714   4.871 -0.3540 -1.8905  0.1576
 1607SOL    HW2 6242   6.019   7.799   4.785 -2.4706  0.3960  0.1074
 1608SOL     OW 6243   4.707   7.374   6.259  0.2650 -0.4933 -0.2089
 1608SOL    HW1 6244   4.682   7.313   6.328 -0.8967 -1.4227 -1.4084
 1608SOL    HW2 6245   4.625   7.418   6.235  0.4103 -1.0097 -1.7521
 1609SOL     OW 6246   6.005   7.649   5.519 -0.7298  0.5409 -0.4755
 1609SOL    HW1 6247   5.951   7.681   5.447 -1.7453 -0.3215 -0.1252
 1609SOL    HW2 6248   5.947   7.591   5.568  0.5332 -0.4371 -0.0923
 1610SOL     OW 6249   2.064   5.411   1.867 -0.8264 -0.3189  0.2986
 1610SOL    HW1 6250   2.034   5.467   1.939  0.2153  0.3351  0.2434
 1610SOL    HW2 6251   2.032   5.455   1.788 -1.4544 -0.7196  0.3173
 1611SOL     OW 6252   7.983   0.089   0.880 -0.1982  0.0331 -0.4578
 1611SOL    HW1 6253   7.954   0.076   0.971 -0.7115  0.5868 -0.5337
 1611SOL    HW2 6254   7.970   0.183   0.864 -3.0507 -0.5326 -2.0877
 1612SOL     OW 6255   0.697   3.186   6.533 -0.1674  0.1424 -0.1564
 1612SOL    HW1 6256   0.705   3.281   6.543  0.0871  0.2358 -1.1890
 1612SOL    HW2 6257   0.652   3.158   6.613  1.4170  0.8711  1.0495
 1613SOL     OW 6258   4.021   1.673   4.630  0.5688 -0.6310  0.2690
 1613SOL    HW1 6259   3.990   1.748   4.681  2.2794  0.7528 -0.6052
 1613SOL    HW2 6260   4.017   1.599   4.691 -0.3836  0.3337  1.4189
 1614SOL     OW 6261   1.813   6.064   7.126 -0.1079  0.0321  0.6760
 1614SOL    HW1 6262   1.866   6.094   7.200  1.0070 -0.0502 -0.0718
 1614SOL    HW2 6263   1.831   5.970   7.120 -0.3434  0.0021  0.4173
 1615SOL     OW 6264   2.293   5.312   3.333  0.4446  0.5127 -0.4797
 1615SOL    HW1 6265   2.203   5.298   3.361 -0.2860  4.2000 -0.4792
 1615SOL    HW2 6266   2.344   5.249   3.384 -1.7288  1.0532  2.6650
 1616SOL     OW 6267   7.856   2.519   5.229 -0.3963  0.1120 -0.0725
 1616SOL    HW1 6268   7.783   2.459   5.215 -0.3708 -0.0755  0.5366
 1616SOL    HW2 6269   7.862   2.527   5.325 -0.4174  1.1083 -0.1425
 1617SOL     OW 6270   0.316   7.248   1.435  0.0558 -0.5975 -0.5794
 1617SOL    HW1 6271   0.291   7.326   1.386  2.0672  0.5887  0.1626
 1617SOL    HW2 6272   0.403   7.225   1.402  0.1023 -1.6606  0.2096
 1618SOL     OW 6273   7.215   1.679   5.912  0.0769  0.4357  0.0890
 1618SOL    HW1 6274   7.210   1.768   5.945 -1.8244  0.0279  1.0096
 1618SOL    HW2 6275   7.126   1.659   5.881 -0.5921 -2.3088  3.1944
 1619SOL     OW 6276   2.794   5.796   0.063  0.4683 -0.2858  0.4390
 1619SOL    HW1 6277   2.709   5.781   0.105  0.3347  0.8370  0.6044
 1619SOL    HW2 6278   2.782   5.765  -0.027  0.8525 -3.0234  1.2249
 1620SOL     OW 6279   0.822   0.630   3.892  0.0442 -0.2591 -0.4709
 1620SOL    HW1 6280   0.749   0.628   3.954 -0.5997  0.2355 -1.1903
 1620SOL    HW2 6281   0.811   0.551   3.839  0.0908 -0.2471 -0.4982
 1621SOL     OW 6282   4.231   3.431   1.142 -0.5675 -0.5626 -0.0632
 1621SOL    HW1 6283   4.222   3.392   1.056 -0.4677 -0.1536 -0.2613
 1621SOL    HW2 6284   4.211   3.524   1.129  0.1417 -0.3665  0.2140
 1622SOL     OW 6285   6.679   5.766   0.213  0.1517 -0.4436  0.2904
 1622SOL    HW1 6286   6.612   5.832   0.198 -1.0036 -1.1696  1.9996
 1622SOL    HW2 6287   6.721   5.754   0.127 -0.8079  1.1751 -0.4453
 1623SOL     OW 6288   3.808   3.272   2.187 -0.0380 -0.1498  0.4169
 1623SOL    HW1 6289   3.889   3.323   2.194 -2.1108  3.4406  0.7229
 1623SOL    HW2 6290   3.752   3.307   2.256 -2.2700 -1.6974 -0.5026
 1624SOL     OW 6291   0.060   2.030   2.905  0.0350  0.3867  0.0085
 1624SOL    HW1 6292   0.009   2.076   2.972  0.5761  1.2892 -0.1763
 1624SOL    HW2 6293   0.056   1.938   2.930 -2.9728  0.1901 -0.8484
 1625SOL     OW 6294   6.222   6.458   6.200 -0.1334 -0.2308  0.4306
 1625SOL    HW1 6295   6.198   6.404   6.124  1.1775 -0.0027 -0.1740
 1625SOL    HW2 6296   6.217   6.548   6.168 -1.3333 -0.0133  1.1551
 1626SOL     OW 6297   4.603   1.009   4.982 -0.0092  0.0029 -0.3136
 1626SOL    HW1 6298   4.533   1.024   5.046 -0.5540 -1.1975 -0.5975
 1626SOL    HW2 6299   4.567   1.041   4.899  0.5943  1.3104 -0.0903
 1627SOL     OW 6300   1.364   7.523   6.174 -0.3783 -0.0164  0.3639
 1627SOL    HW1 6301   1.345   7.611   6.205 -0.8796  0.1102 -0.3045
 1627SOL    HW2 6302   1.289   7.499   6.121  0.0079 -0.6361  0.0873
 1628SOL     OW 6303   5.734   1.180   3.411  0.7158 -0.2449 -0.8665
 1628SOL    HW1 6304   5.696   1.105   3.458  1.0287 -0.1515 -0.4627
 1628SOL    HW2 6305   5.668   1.249   3.420  1.3539  0.1953  0.5929
 1629SOL     OW 6306   7.145   2.813   6.426 -0.0943  0.0923  0.7369
 1629SOL    HW1 6307   7.102   2.884   6.378 -0.6076 -0.4454  0.3959
 1629SOL    HW2 6308   7.169   2.750   6.359 -0.0059 -0.2443  1.0850
 1630SOL     OW 6309   0.814   7.555   0.843 -0.8066  0.2347  0.1059
 1630SOL    HW1 6310   0.770   7.472   0.827  0.3000 -0.3566  0.0347
 1630SOL    HW2 6311   0.779   7.614   0.777 -0.4498 -0.6194 -0.8739
 1631SOL     OW 6312   4.113   5.867   0.336 -0.1235  0.2157 -0.2325
 1631SOL    HW1 6313   4.024   5.896   0.320 -1.2165 -1.6357  1.8925
 1631SOL    HW2 6314   4.120   5.783   0.290 -0.5973 -1.1297  1.9720
 1632SOL     OW 6315   4.338   6.463   3.973  0.1759 -0.3304  0.4219
 1632SOL    HW1 6316   4.347   6.465   3.878  2.2679 -4.3340  0.3424
 1632SOL    HW2 6317   4.423   6.492   4.006 -0.0205 -0.4197  1.0262
 1633SOL     OW 6318   2.458   1.928   2.076  0.6799  0.4382 -0.3733
 1633SOL    HW1 6319   2.533   1.987   2.081  1.0475 -0.1081  0.9336
 1633SOL    HW2 6320   2.400   1.956   2.147  1.6381 -1.7472  1.4223
 1634SOL     OW 6321   6.111   3.932   6.889  0.0645 -0.5438 -0.6635
 1634SOL    HW1 6322   6.143   3.983   6.964 -2.3930  2.7636 -1.6501
 1634SOL    HW2 6323   6.182   3.937   6.825  0.3253  0.8650 -0.3146
 1635SOL     OW 6324   5.924   0.711   3.648  0.1211  0.4671  0.1458
 1635SOL    HW1 6325   5.903   0.776   3.715 -2.5775 -0.4838  0.3668
 1635SOL    HW2 6326   5.936   0.761   3.568 -3.1482  1.3326  0.0354
 1636SOL     OW 6327   6.682   6.987   0.015 -0.4547  0.3192 -0.4974
 1636SOL    HW1 6328   6.597   6.959   0.051  0.2155  1.1229  1.8993
 1636SOL    HW2 6329   6.666   7.075  -0.017 -0.5199  0.5237  0.0793
 1637SOL     OW 6330   2.235   1.811   7.352 -0.1425 -0.0003  0.1725
 1637SOL    HW1 6331   2.197   1.856   7.276  1.4069  0.9220 -0.1006
 1637SOL    HW2 6332   2.164   1.755   7.384 -1.5157  1.1746 -0.6634
 1638SOL     OW 6333   2.780   7.198   6.006 -0.3447 -0.2919 -0.5039
 1638SOL    HW1 6334   2.845   7.254   6.048 -0.3862 -0.8142  0.2699
 1638SOL    HW2 6335   2.821   7.112   6.003 -0.9437 -0.5997 -0.1136
 1639SOL     OW 6336   0.190   1.512   7.380  0.1812 -0.7669  0.3695
 1639SOL    HW1 6337   0.119   1.576   7.386  0.2556 -0.4963 -1.1993
 1639SOL    HW2 6338   0.147   1.431   7.353  0.3093 -0.9175  0.6227
 1640SOL     OW 6339   4.446   3.714   1.442 -1.0206  0.0183  0.0359
 1640SOL    HW1 6340   4.471   3.658   1.515 -0.9701  1.3538  1.0933
 1640SOL    HW2 6341   4.424   3.798   1.483 -1.6738  0.5940 -1.4246
 1641SOL     OW 6342   7.135   7.798   2.345 -0.5074  0.2016  0.1190
 1641SOL    HW1 6343   7.165   7.848   2.270 -1.7646 -1.0780 -1.2902
 1641SOL    HW2 6344   7.057   7.752   2.314 -1.1996 -0.1948  2.2758
 1642SOL     OW 6345   0.369   5.340   5.134 -0.2010  0.0390  0.2266
 1642SOL    HW1 6346   0.463   5.354   5.144 -0.1463 -0.7387  0.8088
 1642SOL    HW2 6347   0.354   5.251   5.164 -1.5393  1.0512  2.9016
 1643SOL     OW 6348   7.015   3.423   6.009  0.0906 -0.7220  0.0938
 1643SOL    HW1 6349   6.934   3.401   6.054  0.0965  1.7510  1.5202
 1643SOL    HW2 6350   6.988   3.474   5.933  0.2628 -0.2736  0.3262
 1644SOL     OW 6351   1.935   4.686   3.654 -0.4049 -0.5561 -0.2051
 1644SOL    HW1 6352   1.856   4.736   3.674 -0.8754 -1.3529 -0.0340
 1644SOL    HW2 6353   1.923   4.657   3.563 -0.2945 -0.6555 -0.1891
 1645SOL     OW 6354   7.559   1.756   3.419  0.3064 -0.0850  0.0747
 1645SOL    HW1 6355   7.553   1.720   3.507 -1.5518  1.9870  0.8771
 1645SOL    HW2 6356   7.552   1.850   3.430  0.9084  0.3070 -2.2388
 1646SOL     OW 6357   6.171   2.256   1.488 -0.0961 -0.3482  0.2821
 1646SOL    HW1 6358   6.110   2.284   1.556 -1.2595 -0.2103 -0.7903
 1646SOL    HW2 6359   6.157   2.161   1.481  0.8599 -0.5607  1.0191
 1647SOL     OW 6360   0.945   2.039   0.974 -0.3127 -0.0458  0.0143
 1647SOL    HW1 6361   0.852   2.021   0.989 -0.0948 -1.5619 -0.2371
 1647SOL    HW2 6362   0.950   2.061   0.881 -0.4208 -0.0095  0.0171
 1648SOL     OW 6363   3.049   3.167   4.646  0.0537  0.2485 -0.3045
 1648SOL    HW1 6364   2.995   3.200   4.574 -1.5195  0.0224  0.7245
 1648SOL    HW2 6365   3.131   3.216   4.639 -1.0495  2.1494 -0.6756
 1649SOL     OW 6366   0.071   0.678   3.495  0.2542 -0.2841  0.2818
 1649SOL    HW1 6367  -0.022   0.657   3.486  0.1052  0.3649  0.2518
 1649SOL    HW2 6368   0.090   0.662   3.587 -0.1271  0.5013  0.5051
 1650SOL     OW 6369   6.325   5.678   0.297  0.5297 -0.2669  0.2216
 1650SOL    HW1 6370   6.234   5.672   0.268  0.8985 -1.0124 -0.8684
 1650SOL    HW2 6371   6.364   5.745   0.240  0.9887 -0.9299 -0.2576
 1651SOL     OW 6372   0.131   3.823   7.209  0.1789  0.7261 -0.2766
 1651SOL    HW1 6373   0.099   3.871   7.286 -1.3333  1.4084 -1.2793
 1651SOL    HW2 6374   0.208   3.776   7.241 -0.7058  0.5376  1.7967
 1652SOL     OW 6375   8.022   0.300   1.258 -0.2099 -0.6706 -0.4425
 1652SOL    HW1 6376   8.053   0.377   1.305 -2.0204 -0.5403  0.5815
 1652SOL    HW2 6377   8.029   0.325   1.165  1.0953 -0.0389 -0.1974
 1653SOL     OW 6378   6.155   1.869   5.093 -0.0954  0.7732  0.7942
 1653SOL    HW1 6379   6.145   1.960   5.067 -1.1450  0.6378  0.6704
 1653SOL    HW2 6380   6.120   1.865   5.182 -1.2472  0.2660  0.3433
 1654SOL     OW 6381   3.538   0.920   6.374  0.4958  0.0288  0.0821
 1654SOL    HW1 6382   3.472   0.850   6.374  0.1951  0.2526 -1.8791
 1654SOL    HW2 6383   3.585   0.908   6.457 -1.3580 -0.7329  1.0928
 1655SOL     OW 6384   3.666   0.174   7.470 -0.0230 -0.4280  0.2313
 1655SOL    HW1 6385   3.576   0.165   7.500  0.6078  0.8007  2.7107
 1655SOL    HW2 6386   3.672   0.264   7.438  0.6043 -0.1386  1.1432
 1656SOL     OW 6387   2.311   5.665   3.497 -0.1087 -0.1820 -0.4606
 1656SOL    HW1 6388   2.348   5.665   3.408 -0.5774  1.2304 -0.6800
 1656SOL    HW2 6389   2.218   5.644   3.484 -0.2837  0.5266 -0.3616
 1657SOL     OW 6390   3.678   3.685   2.928 -0.1556  0.1737  0.2192
 1657SOL    HW1 6391   3.623   3.732   2.990  1.3444  0.6867  1.1853
 1657SOL    HW2 6392   3.766   3.687   2.966 -0.0201 -3.7291  0.5527
 1658SOL     OW 6393   0.060   2.552   2.613 -0.1931  0.0691 -0.1062
 1658SOL    HW1 6394   0.014   2.533   2.531 -2.1825  1.8236  0.5186
 1658SOL    HW2 6395   0.121   2.621   2.590 -1.6891  1.5150  0.0921
 1659SOL     OW 6396   1.372   6.034   5.891  0.3682  0.6101  0.0307
 1659SOL    HW1 6397   1.369   6.114   5.839  1.2813  0.7191  0.1188
 1659SOL    HW2 6398   1.360   6.063   5.982  1.7267  0.7983  0.1756
 1660SOL     OW 6399   1.199   2.694   3.725 -0.2244  0.9113  0.1431
 1660SOL    HW1 6400   1.181   2.784   3.697 -0.1984  1.1348  0.8027
 1660SOL    HW2 6401   1.225   2.704   3.817  0.8284  0.3389 -0.0843
 1661SOL     OW 6402   1.687   0.049   7.378  0.1368 -0.1663 -0.0796
 1661SOL    HW1 6403   1.701  -0.004   7.457  2.3181  0.4765  0.0214
 1661SOL    HW2 6404   1.769   0.098   7.367 -0.0840 -0.2691 -2.7782
 1662SOL     OW 6405   4.219   1.678   3.890 -0.2045 -0.2672 -0.1756
 1662SOL    HW1 6406   4.187   1.602   3.938 -0.6160  0.8181  1.3611
 1662SOL    HW2 6407   4.293   1.710   3.941 -1.4121  1.6400  0.4811
 1663SOL     OW 6408   0.183   2.730   5.558  0.3911  0.0922 -0.3296
 1663SOL    HW1 6409   0.162   2.727   5.464  1.5686  2.7441 -0.7797
 1663SOL    HW2 6410   0.228   2.814   5.569  1.2493 -0.6405  2.4392
 1664SOL     OW 6411   3.667   2.577   3.050  0.0479  0.4438 -0.5740
 1664SOL    HW1 6412   3.652   2.635   3.125 -1.6987 -0.7850  0.0862
 1664SOL    HW2 6413   3.751   2.535   3.069  0.8934  2.0432 -0.6144
 1665SOL     OW 6414   4.900   1.817   1.754 -0.4352 -0.3208 -0.4570
 1665SOL    HW1 6415   4.954   1.765   1.813  0.3446  0.3866 -0.5268
 1665SOL    HW2 6416   4.909   1.907   1.786 -1.5205 -0.1750 -0.5151
 1666SOL     OW 6417   5.690   0.728   3.956  0.2439  0.2510 -0.6408
 1666SOL    HW1 6418   5.645   0.730   3.871  0.8405 -1.4022 -1.0293
 1666SOL    HW2 6419   5.620   0.711   4.019  0.2040 -2.2544 -1.2403
 1667SOL     OW 6420   6.998   0.611   1.973 -0.3145 -0.1713 -0.3528
 1667SOL    HW1 6421   6.934   0.579   1.910 -0.8337  0.4996 -0.1744
 1667SOL    HW2 6422   6.958   0.595   2.058  0.3658 -1.0337 -0.1823
 1668SOL     OW 6423   5.898   4.345   7.863  0.5943  0.5446 -0.0447
 1668SOL    HW1 6424   5.851   4.425   7.839  0.4659  0.9293  1.3896
 1668SOL    HW2 6425   5.963   4.373   7.927  1.3543 -0.3260 -0.4074
 1669SOL     OW 6426   0.809   5.400   4.859  0.2555 -0.5713 -0.1650
 1669SOL    HW1 6427   0.848   5.394   4.772  0.8426 -3.1995  0.1774
 1669SOL    HW2 6428   0.874   5.446   4.911  1.0157 -1.1404 -0.5869
 1670SOL     OW 6429   0.092   7.500   7.462 -0.4851  0.4025 -0.3357
 1670SOL    HW1 6430   0.149   7.446   7.407 -1.5428 -1.0940 -0.0391
 1670SOL    HW2 6431   0.150   7.567   7.498  1.0180 -0.8202 -0.3574
 1671SOL     OW 6432   5.212   6.008   6.476  0.3626  0.1935 -0.1376
 1671SOL    HW1 6433   5.284   6.056   6.516 -0.4531  0.9630  0.4346
 1671SOL    HW2 6434   5.217   6.030   6.383  1.4275 -0.5196 -0.2695
 1672SOL     OW 6435   4.199   5.744   1.558  0.3370  0.1894 -0.4579
 1672SOL    HW1 6436   4.289   5.765   1.531  0.3437  0.6322 -0.1144
 1672SOL    HW2 6437   4.153   5.724   1.477  0.6955  0.1705 -0.6565
 1673SOL     OW 6438   5.033   7.863   5.751  0.4989 -0.7880 -0.2526
 1673SOL    HW1 6439   4.954   7.904   5.786  1.4409  1.2187 -0.3383
 1673SOL    HW2 6440   5.002   7.812   5.676 -0.6136  0.7933 -0.9311
 1674SOL     OW 6441   7.761   4.656   5.806 -0.0812  0.6956 -0.2701
 1674SOL    HW1 6442   7.768   4.748   5.781 -2.1470  0.7616 -0.7934
 1674SOL    HW2 6443   7.681   4.626   5.763 -0.3061 -0.9289  1.1868
 1675SOL     OW 6444   6.012   7.302   0.165  0.2712  0.0354 -0.5498
 1675SOL    HW1 6445   6.050   7.227   0.209 -0.6059  0.9109  1.8709
 1675SOL    HW2 6446   5.939   7.266   0.114 -1.4236 -0.6619  2.1450
 1676SOL     OW 6447   0.417   0.331   3.738 -0.1603  0.0413 -0.0371
 1676SOL    HW1 6448   0.499   0.282   3.736  0.4837  1.1054 -0.6333
 1676SOL    HW2 6449   0.433   0.401   3.802 -0.3154  0.7125 -0.7162
 1677SOL     OW 6450   7.121   4.678   2.505  0.0558  0.2962 -0.6426
 1677SOL    HW1 6451   7.058   4.720   2.563 -1.2584  0.0284 -1.8435
 1677SOL    HW2 6452   7.193   4.742   2.499 -0.0566  0.5959  0.7390
 1678SOL     OW 6453   6.640   0.588   3.916 -0.4312  0.4405 -0.2167
 1678SOL    HW1 6454   6.597   0.555   3.837  0.6076  0.2094 -0.7026
 1678SOL    HW2 6455   6.711   0.643   3.884  0.6074 -0.4174  0.5122
 1679SOL     OW 6456   2.183   5.756   3.236  0.4133 -0.0081  0.5551
 1679SOL    HW1 6457   2.265   5.709   3.218 -0.0954 -0.6805 -0.0436
 1679SOL    HW2 6458   2.169   5.810   3.158 -0.1883 -0.5987  0.2428
 1680SOL     OW 6459   5.769   4.945   0.763 -0.2985  0.5129 -0.0849
 1680SOL    HW1 6460   5.689   4.906   0.728 -0.9808 -0.5013  2.3850
 1680SOL    HW2 6461   5.788   5.018   0.704 -3.1561  0.9268 -0.6414
 1681SOL     OW 6462   4.425   3.346   3.250 -0.3181 -0.4872  0.4242
 1681SOL    HW1 6463   4.480   3.414   3.211  0.1071 -1.0302  0.0699
 1681SOL    HW2 6464   4.347   3.343   3.194  0.6858 -1.8952 -0.9676
 1682SOL     OW 6465   4.928   2.156   7.784  0.4016 -0.5349  0.1600
 1682SOL    HW1 6466   4.862   2.215   7.748  0.3714 -0.7009 -0.0617
 1682SOL    HW2 6467   4.881   2.075   7.801  0.0811 -0.0098  1.9727
 1683SOL     OW 6468   4.379   0.900   6.772 -0.2795 -0.1988 -0.6943
 1683SOL    HW1 6469   4.350   0.919   6.861  0.1663 -0.1121 -0.5671
 1683SOL    HW2 6470   4.405   0.986   6.737 -0.1413 -0.2824 -0.7963
 1684SOL     OW 6471   0.291   6.633   1.533  0.4416 -0.1239 -0.8204
 1684SOL    HW1 6472   0.235   6.695   1.487  1.2155  1.0676 -0.2088
 1684SOL    HW2 6473   0.366   6.622   1.476  1.1068  0.8690 -0.1815
 1685SOL     OW 6474   1.880   7.228   2.450  0.5138  0.0409  0.1286
 1685SOL    HW1 6475   1.816   7.175   2.497  0.3270 -0.1879 -0.3862
 1685SOL    HW2 6476   1.827   7.284   2.393  0.6994  0.8711  0.7546
 1686SOL     OW 6477   7.505   4.053   2.809 -0.1655 -0.3264  0.2576
 1686SOL    HW1 6478   7.431   4.000   2.839 -1.1517  0.6055 -0.4081
 1686SOL    HW2 6479   7.470   4.101   2.733  1.7779 -1.4684 -1.4367
 1687SOL     OW 6480   7.154   4.505   7.319 -0.3524  0.4617  0.4345
 1687SOL    HW1 6481   7.217   4.470   7.382  0.6624  0.9736 -0.2737
 1687SOL    HW2 6482   7.201   4.506   7.236 -2.0471 -1.3519 -0.6325
 1688SOL     OW 6483   7.236   2.258   2.719 -0.1818 -0.2648 -0.2403
 1688SOL    HW1 6484   7.241   2.164   2.737  1.6369  0.3391  3.2324
 1688SOL    HW2 6485   7.146   2.282   2.739 -0.0633 -0.9138  1.1468
 1689SOL     OW 6486   1.071   2.192   6.543 -0.0173 -0.3464 -0.3899
 1689SOL    HW1 6487   1.161   2.213   6.516 -0.5094  1.4194 -0.7892
 1689SOL    HW2 6488   1.016   2.225   6.472 -0.9331 -4.0693 -1.6661
 1690SOL     OW 6489   5.487   4.878   7.396  0.3388  0.2202  0.1835
 1690SOL    HW1 6490   5.447   4.844   7.476 -1.9638 -0.8155 -1.2812
 1690SOL    HW2 6491   5.498   4.800   7.341 -1.3266  1.2537 -1.7408
 1691SOL     OW 6492   7.486   5.011   6.335  0.5834  0.2261  0.2577
 1691SOL    HW1 6493   7.553   5.073   6.305  1.9677 -1.1469  0.3739
 1691SOL    HW2 6494   7.403   5.050   6.307  1.4826  1.5280 -0.7357
 1692SOL     OW 6495   4.760   0.016   0.003 -0.5544  0.6042 -0.3612
 1692SOL    HW1 6496   4.691   0.024  -0.063 -1.1353 -0.6892  0.0611
 1692SOL    HW2 6497   4.718   0.042   0.085 -0.5568 -0.1755 -0.1035
 1693SOL     OW 6498   1.773   6.364   7.365 -0.3241 -0.0944 -0.3298
 1693SOL    HW1 6499   1.798   6.374   7.457 -0.3169 -1.6325 -0.1342
 1693SOL    HW2 6500   1.808   6.279   7.340  0.0664  0.5022 -1.9079
 1694SOL     OW 6501   0.066   1.801   4.753  0.3955  0.5738 -0.4464
 1694SOL    HW1 6502   0.040   1.783   4.843  0.1796  1.7547 -0.2604
 1694SOL    HW2 6503   0.035   1.725   4.703 -1.3748  0.8772  0.1304
 1695SOL     OW 6504   1.336   0.432   3.741 -0.5768  0.1583 -0.4814
 1695SOL    HW1 6505   1.319   0.524   3.762  1.6163 -0.0069  2.6897
 1695SOL    HW2 6506   1.377   0.434   3.655 -1.2950  2.0288 -0.8327
 1696SOL     OW 6507   3.377   2.445   4.719  0.3206  0.0783  0.0450
 1696SOL    HW1 6508   3.300   2.451   4.775 -0.0295 -1.9123 -0.1613
 1696SOL    HW2 6509   3.341   2.452   4.630  0.6844  1.5353 -0.0136
 1697SOL     OW 6510   0.257   6.640   6.967  0.3566 -0.3655  0.0871
 1697SOL    HW1 6511   0.198   6.712   6.987 -1.2034 -0.6617 -2.9205
 1697SOL    HW2 6512   0.329   6.681   6.919  0.9350 -0.4654  0.8486
 1698SOL     OW 6513   4.104   0.766   1.850  0.3229  0.1484  0.1298
 1698SOL    HW1 6514   4.154   0.698   1.895  1.0634  0.0488 -0.8029
 1698SOL    HW2 6515   4.030   0.785   1.908  1.8667  0.8824  1.9412
 1699SOL     OW 6516   6.053   4.445   0.023  0.3075  0.5638 -0.4336
 1699SOL    HW1 6517   6.112   4.440   0.098 -1.1064 -0.5216  0.6413
 1699SOL    HW2 6518   6.055   4.537  -0.003 -0.4158  1.3176  1.9727
 1700SOL     OW 6519   2.833   7.611   4.728 -0.5136  0.4742 -0.6009
 1700SOL    HW1 6520   2.876   7.602   4.813 -2.2279  1.7505  0.4576
 1700SOL    HW2 6521   2.773   7.684   4.739 -0.6319  0.8092 -3.0013
 1701SOL     OW 6522   5.549   2.837   1.778 -0.0961  0.0538  0.3312
 1701SOL    HW1 6523   5.591   2.891   1.711 -1.8148  0.0151 -0.8286
 1701SOL    HW2 6524   5.560   2.887   1.859  1.2896  0.5056 -0.1050
 1702SOL     OW 6525   5.677   4.931   4.281 -0.4766 -0.2009 -0.3242
 1702SOL    HW1 6526   5.691   4.839   4.304 -0.1387 -0.1385 -0.2822
 1702SOL    HW2 6527   5.628   4.928   4.199 -0.7947 -0.4194 -0.1281
 1703SOL     OW 6528   7.510   7.276   3.603 -0.7765 -0.1878  0.1608
 1703SOL    HW1 6529   7.568   7.228   3.543  0.7210  1.1096  0.4873
 1703SOL    HW2 6530   7.423   7.241   3.585  0.1095 -2.4057 -0.1884
 1704SOL     OW 6531   6.716   4.796   6.658 -0.3799 -0.1957 -0.2304
 1704SOL    HW1 6532   6.621   4.805   6.671 -0.4156  0.0694 -0.6253
 1704SOL    HW2 6533   6.742   4.881   6.622  0.1607  0.0493  0.7216
 1705SOL     OW 6534   2.103   5.502   3.993 -0.1420 -0.5537  0.4506
 1705SOL    HW1 6535   2.126   5.471   4.081 -1.1144 -0.6150  0.6942
 1705SOL    HW2 6536   2.016   5.540   4.003  0.4077  0.9510 -0.1420
 1706SOL     OW 6537   7.673   4.984   0.782 -0.4879  0.0661  0.1632
 1706SOL    HW1 6538   7.752   4.930   0.778 -1.0089 -0.6647 -0.5771
 1706SOL    HW2 6539   7.622   4.947   0.854  1.1109  2.3800  2.6788
 1707SOL     OW 6540   0.281   7.041   2.211 -0.2011  0.5226  0.1946
 1707SOL    HW1 6541   0.318   7.129   2.209  0.2443  0.3793  1.2944
 1707SOL    HW2 6542   0.215   7.041   2.142  0.2093  1.5271 -0.2186
 1708SOL     OW 6543   5.846   6.430   3.293  0.0526 -0.2199 -0.3549
 1708SOL    HW1 6544   5.917   6.413   3.230  1.9623  0.8073  1.4044
 1708SOL    HW2 6545   5.867   6.375   3.368 -2.3940 -1.7018 -0.6429
 1709SOL     OW 6546   0.145   2.172   2.060  0.3636 -0.9848  0.2240
 1709SOL    HW1 6547   0.106   2.164   2.147  1.0311 -0.8813  0.5415
 1709SOL    HW2 6548   0.072   2.162   2.000 -0.4554  1.0027  0.8178
 1710SOL     OW 6549   7.389   1.249   5.676  0.1450 -0.2084  0.2873
 1710SOL    HW1 6550   7.397   1.158   5.704  0.6706 -0.5648 -0.9257
 1710SOL    HW2 6551   7.297   1.270   5.685 -0.0345 -0.9787  0.2731
 1711SOL     OW 6552   7.348   4.848   2.003 -0.1280 -0.0136  0.0712
 1711SOL    HW1 6553   7.401   4.928   2.012  0.2653 -0.2549 -0.0929
 1711SOL    HW2 6554   7.272   4.864   2.058 -0.0848  0.5080 -0.0104
 1712SOL     OW 6555   3.308   3.016   2.401 -0.6948  0.0442  0.7991
 1712SOL    HW1 6556   3.276   3.072   2.473 -1.9099 -1.9986  1.9425
 1712SOL    HW2 6557   3.295   2.927   2.433 -0.8305 -0.9429 -1.7913
 1713SOL     OW 6558   0.605   4.068   1.094  0.6082  0.0857  0.1623
 1713SOL    HW1 6559   0.569   4.083   1.181  0.2721 -0.8050  0.1927
 1713SOL    HW2 6560   0.696   4.042   1.110 -0.1104 -2.5831  0.4889
 1714SOL     OW 6561   7.244   3.578   0.403 -0.2548 -0.0095 -0.2508
 1714SOL    HW1 6562   7.226   3.609   0.314 -1.4707 -0.1057 -0.0678
 1714SOL    HW2 6563   7.253   3.658   0.455  1.9365  0.0777 -0.6897
 1715SOL     OW 6564   7.646   6.448   2.283 -0.0701 -0.1884 -0.4528
 1715SOL    HW1 6565   7.629   6.473   2.374  0.2620 -0.7949 -0.2153
 1715SOL    HW2 6566   7.739   6.468   2.270  0.3721 -1.7898 -0.0623
 1716SOL     OW 6567   7.246   1.267   4.685 -0.4324  0.0672  0.6658
 1716SOL    HW1 6568   7.154   1.291   4.675 -0.3921 -0.4198 -1.3229
 1716SOL    HW2 6569   7.258   1.192   4.626  1.3491  0.4443  0.4904
 1717SOL     OW 6570   1.247   6.883   3.161  0.5532 -0.0639  0.0190
 1717SOL    HW1 6571   1.188   6.848   3.095 -1.3108 -0.8099  1.9453
 1717SOL    HW2 6572   1.331   6.842   3.142 -0.0321 -0.6064 -1.5850
 1718SOL     OW 6573   2.450   6.737   7.848 -0.8634  0.2734 -0.1515
 1718SOL    HW1 6574   2.447   6.687   7.929 -0.7290 -0.4428 -0.5772
 1718SOL    HW2 6575   2.445   6.671   7.779  1.2603  0.6570 -0.7545
 1719SOL     OW 6576   4.075   5.051   7.602  0.3292  0.9696 -0.1820
 1719SOL    HW1 6577   4.022   5.128   7.580 -1.3745  0.2265  1.1004
 1719SOL    HW2 6578   4.075   5.048   7.698  2.2547  0.5953 -0.1430
 1720SOL     OW 6579   0.416   4.746   7.785 -0.5738 -0.0973 -0.0418
 1720SOL    HW1 6580   0.494   4.698   7.757 -0.6553 -0.7211  0.7721
 1720SOL    HW2 6581   0.351   4.727   7.717 -0.6632 -1.3249  0.3580
 1721SOL     OW 6582   4.772   2.134   3.608  0.3244  0.2343 -0.1580
 1721SOL    HW1 6583   4.731   2.191   3.543 -0.4899 -0.3729 -0.1850
 1721SOL    HW2 6584   4.728   2.050   3.598  1.3192 -0.3346  0.0718
 1722SOL     OW 6585   7.869   2.516   2.997  0.6144 -0.4473  0.3067
 1722SOL    HW1 6586   7.885   2.455   2.926  0.4673 -0.8525  0.6186
 1722SOL    HW2 6587   7.942   2.501   3.058  0.1941 -0.8128  0.7233
 1723SOL     OW 6588   1.357   1.765   6.659 -0.3194 -0.2141  0.4292
 1723SOL    HW1 6589   1.296   1.705   6.618  0.7690 -1.8662  1.1255
 1723SOL    HW2 6590   1.441   1.746   6.618  0.1153  0.6172  0.8916
 1724SOL     OW 6591   0.036   7.772   3.535  0.0953  0.7526 -0.4489
 1724SOL    HW1 6592   0.111   7.833   3.541  0.8729 -0.2417  0.4266
 1724SOL    HW2 6593   0.070   7.690   3.570 -1.9049  0.7317  1.6818
 1725SOL     OW 6594   4.186   7.937   1.252  0.3849 -0.1797  0.4871
 1725SOL    HW1 6595   4.153   7.956   1.340 -0.3380  0.2932  0.1244
 1725SOL    HW2 6596   4.248   7.866   1.265  0.9974  0.5160  1.5072
 1726SOL     OW 6597   5.760   6.375   6.936  0.5858 -0.0426 -0.4383
 1726SOL    HW1 6598   5.689   6.335   6.885 -0.5540  0.8255  0.4178
 1726SOL    HW2 6599   5.730   6.464   6.952  0.9031 -0.2752  1.7378
 1727SOL     OW 6600   3.700   0.923   7.922 -0.6118 -0.2732 -0.3771
 1727SOL    HW1 6601   3.708   0.850   7.860  0.0390  0.6581 -1.4050
 1727SOL    HW2 6602   3.780   0.918   7.974  0.0396  0.4663 -1.2910
 1728SOL     OW 6603   0.969   7.009   7.704 -0.0238  0.6588 -0.1976
 1728SOL    HW1 6604   1.059   7.038   7.713 -0.2444  0.6723  3.0419
 1728SOL    HW2 6605   0.969   6.920   7.740 -0.9521 -0.1998 -2.1663
 1729SOL     OW 6606   5.804   2.410   0.262  0.6474  0.6825  0.0277
 1729SOL    HW1 6607   5.780   2.436   0.351 -1.1956 -0.8721  0.0534
 1729SOL    HW2 6608   5.723   2.375   0.225  0.9426  2.7209 -2.8489
 1730SOL     OW 6609   1.397   7.610   5.295  0.4148  0.2461  0.1731
 1730SOL    HW1 6610   1.457   7.665   5.345  2.5140  0.9275 -2.8130
 1730SOL    HW2 6611   1.338   7.673   5.252  1.8188  0.1941 -2.0004
 1731SOL     OW 6612   3.728   2.165   3.601 -0.2780 -0.0306  0.3163
 1731SOL    HW1 6613   3.671   2.157   3.525 -1.6912  0.3684  1.2917
 1731SOL    HW2 6614   3.776   2.247   3.586 -0.5355  0.0419 -0.1329
 1732SOL     OW 6615   7.115   7.940   7.905 -0.1244 -0.5934 -0.2642
 1732SOL    HW1 6616   7.095   7.992   7.983 -2.5830 -0.6258 -0.7999
 1732SOL    HW2 6617   7.096   7.999   7.832 -0.7712 -1.5254 -0.8595
 1733SOL     OW 6618   1.649   2.304   3.204 -0.2624 -0.0245  0.6261
 1733SOL    HW1 6619   1.583   2.235   3.193  1.5995 -1.6392 -1.3193
 1733SOL    HW2 6620   1.688   2.286   3.289  0.5824 -1.8453 -0.0807
 1734SOL     OW 6621   6.147   3.573   2.900  0.2209  0.7255 -0.6335
 1734SOL    HW1 6622   6.196   3.503   2.855 -0.9659 -0.3299 -0.3514
 1734SOL    HW2 6623   6.126   3.635   2.830  2.4316  1.5160 -0.6540
 1735SOL     OW 6624   4.784   1.058   5.599 -0.4895  0.2887 -0.0105
 1735SOL    HW1 6625   4.844   0.997   5.641 -0.4884 -0.1123 -0.5745
 1735SOL    HW2 6626   4.709   1.063   5.658  0.3223  1.2233  0.9712
 1736SOL     OW 6627   7.916   0.777   7.910 -0.0994 -0.3933 -0.3493
 1736SOL    HW1 6628   7.831   0.745   7.881 -0.6832  2.6035 -2.4198
 1736SOL    HW2 6629   7.979   0.728   7.856 -0.6658 -0.7565 -0.6956
 1737SOL     OW 6630   6.912   2.204   6.939 -0.2195 -0.9449  0.6142
 1737SOL    HW1 6631   6.899   2.287   6.984 -0.2046 -0.1625 -0.7745
 1737SOL    HW2 6632   6.889   2.138   7.004 -0.8943  0.1511  1.5307
 1738SOL     OW 6633   6.194   2.574   3.778  0.2876 -0.0798  0.2062
 1738SOL    HW1 6634   6.195   2.556   3.684 -3.0997  2.0239 -0.4102
 1738SOL    HW2 6635   6.158   2.495   3.818  0.2093 -0.3897 -0.4722
 1739SOL     OW 6636   7.030   6.181   0.268  0.2680 -0.1544 -0.1233
 1739SOL    HW1 6637   7.098   6.119   0.296 -0.2172 -0.6603 -0.0387
 1739SOL    HW2 6638   7.069   6.267   0.282 -0.2093 -0.3040  2.9504
 1740SOL     OW 6639   7.270   7.290   7.254 -0.3889  0.0801 -0.3820
 1740SOL    HW1 6640   7.335   7.220   7.248 -0.1283  0.2828  0.0623
 1740SOL    HW2 6641   7.187   7.246   7.235 -0.1807 -0.2711 -0.4997
 1741SOL     OW 6642   4.394   0.728   7.514 -0.3865  0.1269  0.4250
 1741SOL    HW1 6643   4.325   0.665   7.534  0.4703 -1.9535 -2.5190
 1741SOL    HW2 6644   4.460   0.714   7.581 -0.8310 -1.1511  0.6198
 1742SOL     OW 6645   2.760   5.225   2.760 -0.1696  0.0412  0.0703
 1742SOL    HW1 6646   2.793   5.313   2.776 -0.9192  0.3864 -0.2392
 1742SOL    HW2 6647   2.744   5.222   2.666 -0.8120 -0.1855  0.1858
 1743SOL     OW 6648   4.070   3.598   1.947 -0.1066 -0.1155  0.4606
 1743SOL    HW1 6649   4.006   3.648   1.997  0.8993  2.1710 -0.4236
 1743SOL    HW2 6650   4.016   3.540   1.892 -1.3367  0.1597  1.3259
 1744SOL     OW 6651   1.022   4.142   2.559 -0.3175 -0.4030 -0.5565
 1744SOL    HW1 6652   1.016   4.231   2.594 -2.1175  0.1015 -2.0014
 1744SOL    HW2 6653   1.035   4.154   2.465 -1.7481 -1.6172 -0.9564
 1745SOL     OW 6654   0.948   5.845   7.097 -0.1387  0.0648  0.0587
 1745SOL    HW1 6655   1.002   5.862   7.019 -1.2804  0.4460 -0.6666
 1745SOL    HW2 6656   0.909   5.760   7.080  0.1070 -0.1420  0.5183
 1746SOL     OW 6657   6.852   2.482   5.894  0.0605 -0.4440  0.1824
 1746SOL    HW1 6658   6.865   2.394   5.928 -1.8046 -0.6342  0.4634
 1746SOL    HW2 6659   6.893   2.539   5.959  0.8905 -1.0587  0.2157
 1747SOL     OW 6660   6.297   5.590   3.614 -0.2079 -0.2586 -0.7924
 1747SOL    HW1 6661   6.235   5.623   3.548 -0.2103  0.3369 -0.4936
 1747SOL    HW2 6662   6.355   5.664   3.631  0.5163 -0.7819 -0.9792
 1748SOL     OW 6663   0.857   4.286   1.483  0.3942 -0.8962 -0.1825
 1748SOL    HW1 6664   0.860   4.231   1.405  0.0631  0.5852 -1.2890
 1748SOL    HW2 6665   0.863   4.375   1.450  0.5904 -0.2262  1.5252
 1749SOL     OW 6666   5.083   1.886   2.181  0.0619 -0.5516 -0.8278
 1749SOL    HW1 6667   5.149   1.864   2.115  2.3980 -0.6476  1.3705
 1749SOL    HW2 6668   5.123   1.957   2.232  0.3277 -3.0744  2.9572
 1750SOL     OW 6669   4.974   0.438   2.636 -0.3230 -0.0692  0.0286
 1750SOL    HW1 6670   4.888   0.442   2.596 -0.3959  1.1964  0.2689
 1750SOL    HW2 6671   5.030   0.492   2.579  0.3249 -0.8952 -0.1428
 1751SOL     OW 6672   2.832   6.878   1.486  0.2042 -0.0732  0.0876
 1751SOL    HW1 6673   2.903   6.905   1.427  1.0926  0.8359  1.5116
 1751SOL    HW2 6674   2.752   6.907   1.442  0.8485  0.7170 -0.6021
 1752SOL     OW 6675   1.398   0.641   1.352 -0.4900 -0.2074 -0.5414
 1752SOL    HW1 6676   1.317   0.591   1.355  0.0703 -1.1023  1.0994
 1752SOL    HW2 6677   1.467   0.576   1.342  0.0498  0.5365 -1.8862
 1753SOL     OW 6678   7.326   3.756   0.644 -0.2574 -0.5363  0.5596
 1753SOL    HW1 6679   7.286   3.824   0.588  1.9244  1.4825  1.2946
 1753SOL    HW2 6680   7.274   3.758   0.724 -0.3325  0.1509  0.5025
 1754SOL     OW 6681   4.127   2.633   4.686 -0.4343 -0.4543 -0.2851
 1754SOL    HW1 6682   4.116   2.702   4.752 -1.4434 -1.8184  1.0526
 1754SOL    HW2 6683   4.069   2.660   4.614 -0.3946  0.3541 -0.0322
 1755SOL     OW 6684   4.825   6.887   4.837  0.3005  0.2607  0.4798
 1755SOL    HW1 6685   4.748   6.868   4.890 -1.1175 -0.8893 -1.8483
 1755SOL    HW2 6686   4.803   6.855   4.749  1.7020  3.8452 -1.4011
 1756SOL     OW 6687   5.236   7.804   3.178 -0.1593  0.0213  0.3518
 1756SOL    HW1 6688   5.204   7.794   3.088  0.3061 -0.0607  0.1930
 1756SOL    HW2 6689   5.225   7.897   3.197  1.0731  0.3245 -0.3096
 1757SOL     OW 6690   3.365   3.064   5.566  0.2173 -0.3238  0.7104
 1757SOL    HW1 6691   3.333   3.090   5.479 -0.8777 -1.7263  0.6501
 1757SOL    HW2 6692   3.326   3.128   5.625 -0.2634 -0.2314  0.3086
 1758SOL     OW 6693   7.175   2.756   0.415 -0.4871  0.2078  0.1991
 1758SOL    HW1 6694   7.196   2.669   0.448  1.4104 -0.1781 -1.7850
 1758SOL    HW2 6695   7.080   2.755   0.402 -0.3790 -1.9500 -0.7667
 1759SOL     OW 6696   4.903   2.087   4.467  0.2515  0.5330  0.0017
 1759SOL    HW1 6697   4.923   2.169   4.423  0.0410  0.7545  0.3183
 1759SOL    HW2 6698   4.894   2.023   4.396 -1.4963  1.1679 -0.3943
 1760SOL     OW 6699   2.025   3.440   1.382  0.0484  0.4793 -0.0876
 1760SOL    HW1 6700   1.937   3.453   1.348  0.0522 -2.0314 -1.2723
 1760SOL    HW2 6701   2.017   3.452   1.477 -1.4673  0.6917 -0.2214
 1761SOL     OW 6702   1.584   0.333   2.096  0.1156 -0.0205 -0.2157
 1761SOL    HW1 6703   1.608   0.364   2.183 -0.0933 -0.7985  0.1328
 1761SOL    HW2 6704   1.547   0.409   2.051  1.3150  0.6849 -0.0413
 1762SOL     OW 6705   6.377   1.154   2.441  0.1575 -0.4847 -0.2494
 1762SOL    HW1 6706   6.301   1.153   2.499  0.8207 -0.1886  0.6447
 1762SOL    HW2 6707   6.445   1.108   2.490  1.4077  1.6688  0.1714
 1763SOL     OW 6708   0.871   7.186   2.950  0.2575  0.1286 -1.2127
 1763SOL    HW1 6709   0.911   7.239   3.019 -0.7607  1.0242 -1.2921
 1763SOL    HW2 6710   0.917   7.102   2.955  1.0772  0.6164 -0.2962
 1764SOL     OW 6711   7.789   7.322   1.536 -0.0646  0.6587  0.5091
 1764SOL    HW1 6712   7.832   7.239   1.557 -1.1925 -0.1859 -0.4218
 1764SOL    HW2 6713   7.696   7.302   1.535 -0.2502  1.0450 -3.1373
 1765SOL     OW 6714   7.358   3.292   6.938  0.3190  0.4068 -0.5009
 1765SOL    HW1 6715   7.366   3.306   6.844  0.4699  0.8969 -0.4143
 1765SOL    HW2 6716   7.411   3.214   6.956  1.5842  1.2422 -0.5713
 1766SOL     OW 6717   0.190   0.080   2.086  0.0146 -0.0250  0.1093
 1766SOL    HW1 6718   0.178   0.073   2.181 -0.7981  0.1147  0.0202
 1766SOL    HW2 6719   0.130   0.016   2.049  0.7521 -0.4970 -0.3048
 1767SOL     OW 6720   1.444   1.156   4.944 -0.5968 -0.0502 -0.0993
 1767SOL    HW1 6721   1.375   1.145   4.878 -1.1069  0.7012  0.2900
 1767SOL    HW2 6722   1.491   1.234   4.916  0.1293 -0.5847 -0.3833
 1768SOL     OW 6723   5.319   7.670   3.870  0.8438  0.0970 -0.1655
 1768SOL    HW1 6724   5.294   7.583   3.903 -0.3096  0.4345 -0.1167
 1768SOL    HW2 6725   5.265   7.731   3.920  0.9329  0.7808 -0.8878
 1769SOL     OW 6726   2.936   4.740   7.470  0.0978 -0.3582 -0.7584
 1769SOL    HW1 6727   2.845   4.763   7.453  0.0108 -1.0230 -1.2250
 1769SOL    HW2 6728   2.980   4.824   7.482 -0.8626 -0.0760  1.0285
 1770SOL     OW 6729   7.320   0.191   3.018 -0.4403 -0.1453  0.1727
 1770SOL    HW1 6730   7.251   0.181   2.952  0.4255 -1.4376 -0.5920
 1770SOL    HW2 6731   7.286   0.144   3.095 -0.2344 -1.2200 -0.3673
 1771SOL     OW 6732   7.177   7.650   5.355  0.3907  0.1955  0.0274
 1771SOL    HW1 6733   7.122   7.606   5.420  1.3048  0.1965  0.8146
 1771SOL    HW2 6734   7.190   7.738   5.389  0.4361  0.3655 -0.4213
 1772SOL     OW 6735   5.404   1.377   7.344  0.3723 -0.6285 -0.4915
 1772SOL    HW1 6736   5.411   1.472   7.347  0.7091 -0.5995 -1.7333
 1772SOL    HW2 6737   5.464   1.351   7.274 -0.7457 -1.6346 -1.1020
 1773SOL     OW 6738   5.462   7.002   6.615 -0.4775  0.4195  0.3029
 1773SOL    HW1 6739   5.554   7.024   6.627 -0.3633 -0.2322  0.6823
 1773SOL    HW2 6740   5.438   7.042   6.532  0.4111 -0.2006 -0.2728
 1774SOL     OW 6741   6.060   1.877   1.115 -0.3003 -0.3628  0.1777
 1774SOL    HW1 6742   6.087   1.806   1.056 -0.5574 -0.8600  0.6461
 1774SOL    HW2 6743   5.986   1.841   1.163  0.1305 -0.0984  1.0646
 1775SOL     OW 6744   3.027   2.167   1.066 -0.1873  0.2505 -0.3980
 1775SOL    HW1 6745   2.985   2.252   1.073  0.5555  0.5070  1.6628
 1775SOL    HW2 6746   3.035   2.151   0.972 -3.1227  1.0037 -0.8456
 1776SOL     OW 6747   7.946   0.214   0.321 -0.0990  0.2476 -0.0489
 1776SOL    HW1 6748   7.951   0.119   0.326  0.5591  0.2682 -0.3098
 1776SOL    HW2 6749   7.885   0.231   0.249 -0.1222  0.0250 -0.0822
 1777SOL     OW 6750   7.131   1.097   7.022 -0.4332  0.0840 -0.4509
 1777SOL    HW1 6751   7.144   1.007   7.053  0.6621  0.0012 -1.0975
 1777SOL    HW2 6752   7.218   1.124   6.991 -0.3009  2.0057  1.3669
 1778SOL     OW 6753   4.300   3.624   6.235 -0.2446  0.5970  0.2483
 1778SOL    HW1 6754   4.341   3.549   6.278 -2.8551 -0.8450  0.4022
 1778SOL    HW2 6755   4.374   3.674   6.199  1.6128 -2.1339 -0.0354
 1779SOL     OW 6756   1.725   5.252   3.769  0.0892 -0.1439 -0.5156
 1779SOL    HW1 6757   1.715   5.291   3.682 -0.8749  0.4491 -0.1482
 1779SOL    HW2 6758   1.795   5.188   3.758  0.5327  0.4811 -1.5437
 1780SOL     OW 6759   1.546   1.394   5.665 -0.2346 -0.3343  0.2600
 1780SOL    HW1 6760   1.619   1.453   5.644  1.5059 -1.6052  2.3236
 1780SOL    HW2 6761   1.550   1.326   5.598 -0.0124  0.0077 -0.0793
 1781SOL     OW 6762   0.335   7.065   5.995 -0.2922  0.0750 -0.2456
 1781SOL    HW1 6763   0.330   7.144   6.050 -0.2512  0.2933 -0.5544
 1781SOL    HW2 6764   0.255   7.067   5.943  0.2615  0.5536 -1.1112
 1782SOL     OW 6765   4.026   6.941   2.685  0.3097 -0.1293  0.4170
 1782SOL    HW1 6766   4.087   6.871   2.708 -0.8120 -1.7841 -1.3740
 1782SOL    HW2 6767   3.953   6.930   2.745  0.2536 -0.3277  0.3120
 1783SOL     OW 6768   7.828   4.338   4.365 -0.0827  0.2068  0.2905
 1783SOL    HW1 6769   7.757   4.341   4.301  1.3157  0.7592 -1.3179
 1783SOL    HW2 6770   7.825   4.248   4.400 -0.5735 -0.2827 -0.9411
 1784SOL     OW 6771   1.384   1.515   1.780  0.0120 -0.3097  0.3766
 1784SOL    HW1 6772   1.380   1.450   1.710  1.2221 -0.4018  0.3714
 1784SOL    HW2 6773   1.293   1.537   1.797 -0.3129 -0.2711 -1.2349
 1785SOL     OW 6774   7.936   4.798   7.907  0.9577 -0.4956 -0.8342
 1785SOL    HW1 6775   7.912   4.709   7.881  4.6863 -1.6289 -0.9857
 1785SOL    HW2 6776   7.972   4.788   7.995  2.9109  0.5031 -1.4566
 1786SOL     OW 6777   5.942   7.833   7.712 -0.2564  0.2438 -0.3323
 1786SOL    HW1 6778   5.868   7.777   7.736 -0.5401  1.0086  0.6598
 1786SOL    HW2 6779   6.019   7.781   7.734 -0.5118  0.4707  1.2181
 1787SOL     OW 6780   7.788   1.283   2.833 -0.2112  0.2994 -0.2058
 1787SOL    HW1 6781   7.810   1.281   2.926  3.3538 -0.0306 -0.9007
 1787SOL    HW2 6782   7.808   1.195   2.802 -1.9292  0.2257 -1.2476
 1788SOL     OW 6783   7.749   8.026   7.538 -0.4076  0.1384 -0.0515
 1788SOL    HW1 6784   7.733   8.086   7.465 -1.3624 -0.3118 -0.2312
 1788SOL    HW2 6785   7.708   7.944   7.510  0.9976 -0.6425  0.1223
 1789SOL     OW 6786   4.063   1.046   4.595 -0.1045  0.4144  0.1674
 1789SOL    HW1 6787   4.021   1.008   4.672  0.1449  0.6095  0.4015
 1789SOL    HW2 6788   4.021   1.132   4.585 -0.0753  0.4256  0.1413
 1790SOL     OW 6789   6.710   4.214   7.357 -0.3327 -0.2222 -0.2044
 1790SOL    HW1 6790   6.798   4.207   7.321  0.5617  2.6784  1.1258
 1790SOL    HW2 6791   6.663   4.268   7.295 -0.5317 -0.0288  0.1112
 1791SOL     OW 6792   0.859   1.272   3.478 -0.0754  0.0397 -0.1729
 1791SOL    HW1 6793   0.855   1.342   3.543  0.7834  1.4323 -1.5546
 1791SOL    HW2 6794   0.777   1.279   3.429  0.2898  0.4892 -0.7196
 1792SOL     OW 6795   4.135   2.283   7.146 -0.2712 -0.0795  0.1422
 1792SOL    HW1 6796   4.153   2.356   7.205  0.0900 -0.3182  0.3283
 1792SOL    HW2 6797   4.039   2.282   7.138 -0.2152  1.6060 -1.3808
 1793SOL     OW 6798   0.194   1.856   7.032  0.1799  0.4148 -0.5571
 1793SOL    HW1 6799   0.196   1.843   6.937  0.4335  0.3777 -0.5486
 1793SOL    HW2 6800   0.126   1.797   7.063 -1.7126  2.2374 -0.9792
 1794SOL     OW 6801   5.647   2.274   2.955 -0.1831 -0.3451  0.0733
 1794SOL    HW1 6802   5.641   2.198   3.012 -1.6616 -0.7034 -0.5085
 1794SOL    HW2 6803   5.575   2.331   2.984  1.2021  1.1048  0.8431
 1795SOL     OW 6804   7.052   1.822   0.162 -0.5589  0.4029  0.7484
 1795SOL    HW1 6805   7.086   1.850   0.247 -0.2839  0.6598  0.5567
 1795SOL    HW2 6806   7.111   1.753   0.134 -0.1247  0.9184  0.3687
 1796SOL     OW 6807   6.887   6.079   2.240  0.0224  0.3389  0.6278
 1796SOL    HW1 6808   6.842   6.028   2.307  0.0098 -0.6285 -0.0807
 1796SOL    HW2 6809   6.918   6.013   2.177  1.4397  1.0609  0.5123
 1797SOL     OW 6810   6.987   2.582   5.248 -0.3258 -0.3319  0.4437
 1797SOL    HW1 6811   7.000   2.495   5.285 -2.2378 -0.2165  1.4790
 1797SOL    HW2 6812   6.940   2.566   5.166  1.5087 -0.3938 -0.6551
 1798SOL     OW 6813   2.391   2.404   3.834 -0.0837  0.3593 -0.3611
 1798SOL    HW1 6814   2.432   2.481   3.797 -2.3054  1.6614 -0.2751
 1798SOL    HW2 6815   2.304   2.401   3.795  0.2270 -2.6908 -1.1069
 1799SOL     OW 6816   2.649   6.332   1.192 -0.3217 -0.4156  0.0316
 1799SOL    HW1 6817   2.654   6.265   1.261  0.7659 -0.6669 -0.2609
 1799SOL    HW2 6818   2.738   6.335   1.156 -1.0759 -0.9611 -2.0105
 1800SOL     OW 6819   0.907   2.826   0.832  0.2298  0.5116  0.0627
 1800SOL    HW1 6820   0.867   2.830   0.746  0.5507  0.3353 -0.0951
 1800SOL    HW2 6821   0.838   2.793   0.890  0.3738 -0.5154 -0.3428
 1801SOL     OW 6822   3.150   2.495   4.896 -0.7983 -0.0870 -0.1808
 1801SOL    HW1 6823   3.168   2.581   4.934 -2.1623  0.2733 -0.2850
 1801SOL    HW2 6824   3.157   2.434   4.969 -1.0046  0.2822  0.1539
 1802SOL     OW 6825   1.673   6.934   4.720  0.1763 -0.1342 -0.9034
 1802SOL    HW1 6826   1.647   6.846   4.746  0.7424 -0.2846 -0.8394
 1802SOL    HW2 6827   1.665   6.934   4.625  0.1581 -0.2483 -0.9022
 1803SOL     OW 6828   4.487   1.177   6.176 -0.9452  0.2713  0.3879
 1803SOL    HW1 6829   4.580   1.201   6.170 -1.4306  2.6392  1.0886
 1803SOL    HW2 6830   4.486   1.082   6.168  1.4698  0.2417 -0.3583
 1804SOL     OW 6831   6.667   6.427   1.059 -0.0138  0.5818 -0.5529
 1804SOL    HW1 6832   6.711   6.367   0.999  1.0079 -0.2456  0.9529
 1804SOL    HW2 6833   6.710   6.511   1.043  1.4003  0.0227  0.1071
 1805SOL     OW 6834   5.780   1.349   0.596  0.2781 -0.2098 -0.1062
 1805SOL    HW1 6835   5.737   1.435   0.596 -0.2920 -0.4746 -1.1420
 1805SOL    HW2 6836   5.866   1.365   0.633 -0.6447  0.3758  1.8957
 1806SOL     OW 6837   5.016   2.492   5.746  0.4043  0.1662  0.6527
 1806SOL    HW1 6838   5.080   2.448   5.690  0.2323 -0.5078  0.9746
 1806SOL    HW2 6839   5.067   2.522   5.821  0.5631  0.7285  0.3278
 1807SOL     OW 6840   1.720   2.840   6.246  0.0824 -0.2657  0.1372
 1807SOL    HW1 6841   1.745   2.932   6.243 -1.2311  0.1302  0.6674
 1807SOL    HW2 6842   1.709   2.814   6.155 -0.3119  0.3318  0.0126
 1808SOL     OW 6843   3.121   4.803   3.121 -0.1980 -0.0046  0.1708
 1808SOL    HW1 6844   3.187   4.843   3.178 -0.6928  2.7991 -1.0733
 1808SOL    HW2 6845   3.038   4.842   3.149 -1.0864 -1.8999  0.3343
 1809SOL     OW 6846   3.314   3.822   0.344  0.6269 -0.4932 -0.0254
 1809SOL    HW1 6847   3.236   3.767   0.339  1.4388 -1.6084 -0.6567
 1809SOL    HW2 6848   3.283   3.903   0.385 -1.0923 -0.4887 -1.2298
 1810SOL     OW 6849   2.981   7.992   7.053  0.4319 -0.1287  0.1215
 1810SOL    HW1 6850   2.905   8.039   7.088 -0.0933  0.4743 -1.7178
 1810SOL    HW2 6851   3.054   8.020   7.108 -0.3060  0.9097  0.6129
 1811SOL     OW 6852   5.396   5.229   6.272 -0.0809  0.3325 -0.3551
 1811SOL    HW1 6853   5.400   5.277   6.354 -0.4102  0.7870 -0.5973
 1811SOL    HW2 6854   5.363   5.293   6.209  1.5169  0.3955 -1.1594
 1812SOL     OW 6855   6.003   0.307   0.735 -0.3346 -0.2354  0.2759
 1812SOL    HW1 6856   6.064   0.379   0.754 -0.7316  0.0337  0.5351
 1812SOL    HW2 6857   5.933   0.348   0.684  0.4654 -0.8425 -1.3965
 1813SOL     OW 6858   7.087   1.858   4.850 -0.4671  0.3792  0.2410
 1813SOL    HW1 6859   7.095   1.775   4.897 -1.4569  0.4100  0.4938
 1813SOL    HW2 6860   7.167   1.865   4.798 -0.0005 -0.3358  0.8469
 1814SOL     OW 6861   5.878   7.290   0.781 -0.0349 -0.6843 -0.7053
 1814SOL    HW1 6862   5.800   7.327   0.823 -0.2922 -1.4838 -0.4509
 1814SOL    HW2 6863   5.906   7.356   0.718 -2.3642 -1.3811 -2.6161
 1815SOL     OW 6864   5.215   7.235   6.707 -0.3901  0.4039  0.9679
 1815SOL    HW1 6865   5.135   7.272   6.744 -1.2249 -0.5851  0.1967
 1815SOL    HW2 6866   5.209   7.141   6.724  0.1000  0.1853  0.0039
 1816SOL     OW 6867   5.764   1.942   7.237  0.2173  0.3237 -0.0688
 1816SOL    HW1 6868   5.832   1.967   7.175 -1.1683  1.4304 -1.2054
 1816SOL    HW2 6869   5.742   1.852   7.214  0.0899  0.5480 -0.8306
 1817SOL     OW 6870   4.205   7.917   3.526 -0.2737  0.0043 -0.0095
 1817SOL    HW1 6871   4.146   7.980   3.568  1.1099  0.3215  1.5850
 1817SOL    HW2 6872   4.289   7.930   3.570  0.7329 -1.1502 -1.4789
 1818SOL     OW 6873   7.534   4.608   0.738  0.6858  0.3235 -0.3417
 1818SOL    HW1 6874   7.571   4.615   0.826  1.1394 -0.7975 -0.4269
 1818SOL    HW2 6875   7.610   4.620   0.679  0.5196  0.2842 -0.5651
 1819SOL     OW 6876   4.838   6.867   1.336 -0.4096 -0.6347 -0.3405
 1819SOL    HW1 6877   4.830   6.838   1.245  0.6071 -0.1951 -0.5823
 1819SOL    HW2 6878   4.783   6.945   1.341  0.0053 -0.3054 -0.7531
 1820SOL     OW 6879   5.265   1.207   2.411  0.1257 -0.1919 -0.3222
 1820SOL    HW1 6880   5.219   1.282   2.448  0.4027 -0.9994  1.8035
 1820SOL    HW2 6881   5.270   1.226   2.317 -1.2977  1.6164 -0.0927
 1821SOL     OW 6882   6.459   6.101   1.980  0.1835  0.2441  0.1227
 1821SOL    HW1 6883   6.479   6.008   1.968 -1.1969 -0.2335  1.1999
 1821SOL    HW2 6884   6.523   6.147   1.926  2.5058 -1.2329  1.4701
 1822SOL     OW 6885   4.056   1.186   7.008  0.0607 -0.0087  0.3854
 1822SOL    HW1 6886   3.990   1.212   7.072 -0.0981 -0.8440  0.5650
 1822SOL    HW2 6887   4.053   1.091   7.007  0.5865 -0.0274 -0.3198
 1823SOL     OW 6888   2.786   0.424   7.378  0.7246  0.0457  0.4014
 1823SOL    HW1 6889   2.842   0.475   7.436  0.1301  0.4034  0.6774
 1823SOL    HW2 6890   2.845   0.388   7.312  0.9502  2.4964 -0.8249
 1824SOL     OW 6891   7.838   5.411   4.752  0.4626  0.0298  0.2522
 1824SOL    HW1 6892   7.781   5.338   4.727  0.4374  0.3378 -0.5928
 1824SOL    HW2 6893   7.780   5.488   4.752  1.0991  0.5581 -1.7855
 1825SOL     OW 6894   2.533   7.246   6.048 -0.6169  0.1271  0.1697
 1825SOL    HW1 6895   2.621   7.228   6.017  0.0803  3.5460 -0.2359
 1825SOL    HW2 6896   2.475   7.216   5.978  0.3653 -0.3986 -0.4202
 1826SOL     OW 6897   4.650   3.809   7.188  0.2854  0.3229 -0.0243
 1826SOL    HW1 6898   4.625   3.873   7.122 -0.3516 -0.9627 -1.0731
 1826SOL    HW2 6899   4.745   3.818   7.196  0.4828  0.0048 -1.6765
 1827SOL     OW 6900   4.741   3.001   4.092 -0.5988  0.2202  0.2989
 1827SOL    HW1 6901   4.705   2.913   4.101  0.8605 -0.3577  0.9235
 1827SOL    HW2 6902   4.734   3.021   3.999  1.4216 -1.6773 -0.3446
 1828SOL     OW 6903   0.852   2.555   7.422 -0.0562  0.0434  0.0944
 1828SOL    HW1 6904   0.919   2.555   7.490 -1.4067  1.4851  1.5122
 1828SOL    HW2 6905   0.777   2.510   7.462  0.0381 -1.5682 -1.4612
 1829SOL     OW 6906   1.493   7.314   2.689  0.0430 -0.0603  0.5982
 1829SOL    HW1 6907   1.537   7.241   2.644  3.0480  0.0898  3.0086
 1829SOL    HW2 6908   1.564   7.369   2.721 -2.0438  1.7813  2.3920
 1830SOL     OW 6909   4.390   4.573   2.000 -0.1149  0.2627 -0.5566
 1830SOL    HW1 6910   4.454   4.508   2.029 -0.9785 -1.0126 -1.4092
 1830SOL    HW2 6911   4.305   4.536   2.024 -0.7889 -0.2084 -3.2875
 1831SOL     OW 6912   0.249   0.393   2.333  0.5140  0.0363  0.2879
 1831SOL    HW1 6913   0.235   0.300   2.349  0.7683  0.1933  1.5735
 1831SOL    HW2 6914   0.163   0.427   2.308  0.4071 -0.5285 -0.1234
 1832SOL     OW 6915   8.030   0.066   1.790 -0.4960 -0.2216 -0.1459
 1832SOL    HW1 6916   8.072  -0.005   1.838 -1.9893 -0.8776  0.2429
 1832SOL    HW2 6917   8.050   0.047   1.698  2.4934  1.1210  0.1078
 1833SOL     OW 6918   7.782   4.700   4.928  0.5432  0.7150  0.4832
 1833SOL    HW1 6919   7.793   4.767   4.861  0.0171  1.1342  0.8101
 1833SOL    HW2 6920   7.717   4.640   4.892  0.8048  0.5368  0.3088
 1834SOL     OW 6921   4.628   5.549   2.857 -0.7911  0.0385 -0.4931
 1834SOL    HW1 6922   4.593   5.558   2.768 -1.5552 -0.3549 -0.2432
 1834SOL    HW2 6923   4.695   5.481   2.849 -1.3098 -0.4710 -0.6614
 1835SOL     OW 6924   5.881   5.640   2.805  0.1386  0.5326  0.0058
 1835SOL    HW1 6925   5.970   5.638   2.841  0.1147 -1.4769  0.0908
 1835SOL    HW2 6926   5.827   5.598   2.871 -1.2856  3.3739  0.7742
 1836SOL     OW 6927   0.956   2.697   4.352 -0.0138 -0.1413 -0.2146
 1836SOL    HW1 6928   0.901   2.626   4.384  1.1573 -1.3897 -0.8583
 1836SOL    HW2 6929   1.015   2.655   4.289  2.5336  0.8377  1.3516
 1837SOL     OW 6930   0.413   6.834   6.077 -0.5458  0.1446  0.6259
 1837SOL    HW1 6931   0.392   6.925   6.053 -0.5573  0.4910  1.8441
 1837SOL    HW2 6932   0.508   6.828   6.069 -0.4283  0.5883  1.5029
 1838SOL     OW 6933   5.000   0.429   4.787  0.6024  0.7223 -0.2656
 1838SOL    HW1 6934   4.918   0.466   4.820  0.2493 -0.6456  0.5016
 1838SOL    HW2 6935   4.977   0.339   4.763  1.5303  0.8051 -1.5653
 1839SOL     OW 6936   0.957   3.884   4.198 -0.2606  0.7018  0.2830
 1839SOL    HW1 6937   0.862   3.891   4.193 -0.3540 -0.9913 -1.9841
 1839SOL    HW2 6938   0.973   3.792   4.219  0.9296  1.4468  3.1139
 1840SOL     OW 6939   3.865   6.893   0.111 -0.0899 -0.2357  0.1627
 1840SOL    HW1 6940   3.937   6.941   0.070 -0.4604  1.0176  0.9112
 1840SOL    HW2 6941   3.907   6.840   0.179  0.1686  0.3373  0.4643
 1841SOL     OW 6942   7.174   7.628   3.248 -0.1616  0.3279  0.5096
 1841SOL    HW1 6943   7.170   7.713   3.205 -1.3963 -0.3686 -0.8492
 1841SOL    HW2 6944   7.084   7.609   3.273  0.4740  0.6097  3.3571
 1842SOL     OW 6945   4.399   2.236   0.567  0.6326  0.4338  0.1756
 1842SOL    HW1 6946   4.388   2.166   0.502 -0.4915  1.2800 -0.6057
 1842SOL    HW2 6947   4.493   2.243   0.580  0.7430 -2.1998  1.4065
 1843SOL     OW 6948   4.899   0.087   2.916 -0.5513 -0.2329 -0.2998
 1843SOL    HW1 6949   4.909   0.089   2.821 -1.7869 -0.6428 -0.4568
 1843SOL    HW2 6950   4.831   0.022   2.932  0.3680 -0.9344  0.9469
 1844SOL     OW 6951   2.924   7.029   0.010 -0.2049 -0.0704 -0.2514
 1844SOL    HW1 6952   2.969   7.101   0.054 -0.4370 -0.5378  0.7875
 1844SOL    HW2 6953   2.990   6.993  -0.050  0.0542  0.7023 -0.4360
 1845SOL     OW 6954   0.710   6.508   4.086 -0.1798  0.3847 -0.2000
 1845SOL    HW1 6955   0.783   6.523   4.146 -0.7056 -0.0148  0.5667
 1845SOL    HW2 6956   0.709   6.585   4.029  1.7148 -0.2567 -1.1727
 1846SOL     OW 6957   6.366   0.347   0.966 -0.1747  0.1383 -0.2851
 1846SOL    HW1 6958   6.303   0.277   0.980 -0.5970  0.7156  0.8325
 1846SOL    HW2 6959   6.320   0.427   0.993  1.6055  0.3737  2.5385
 1847SOL     OW 6960   5.973   6.207   3.460  0.4175 -0.0009  0.6346
 1847SOL    HW1 6961   5.948   6.120   3.492 -2.2335  0.7552  0.9160
 1847SOL    HW2 6962   5.935   6.267   3.524  0.6437  1.4027 -0.5066
 1848SOL     OW 6963   2.465   1.376   3.481  0.3458  0.4649  0.2843
 1848SOL    HW1 6964   2.498   1.456   3.441 -0.4629  0.1258 -1.1302
 1848SOL    HW2 6965   2.507   1.305   3.433  3.0272 -0.1090  3.1306
 1849SOL     OW 6966   5.277   4.433   4.363 -0.4139 -0.3784 -0.3826
 1849SOL    HW1 6967   5.182   4.430   4.372 -0.3481  0.4231  1.0216
 1849SOL    HW2 6968   5.293   4.442   4.269 -1.7511  0.0473 -0.5846
 1850SOL     OW 6969   1.242   4.790   3.884 -0.3970 -0.0168 -0.0145
 1850SOL    HW1 6970   1.251   4.869   3.938  0.6754  0.7884 -1.3164
 1850SOL    HW2 6971   1.252   4.821   3.794  1.8790 -1.8577 -0.4857
 1851SOL     OW 6972   2.407   1.937   7.533 -0.1286 -0.0215  0.2893
 1851SOL    HW1 6973   2.360   1.894   7.461 -1.6590  0.4552  0.9534
 1851SOL    HW2 6974   2.359   1.912   7.611  0.4947  0.8230  0.9642
 1852SOL     OW 6975   4.604   3.169   2.736  0.1700  0.8190 -0.5181
 1852SOL    HW1 6976   4.512   3.193   2.741  0.6436  2.5119  0.4436
 1852SOL    HW2 6977   4.652   3.245   2.768  2.0379  0.8475 -3.0211
 1853SOL     OW 6978   3.076   7.498   4.622  0.3694 -0.0928  0.4294
 1853SOL    HW1 6979   3.055   7.413   4.660  0.3630  0.4679  1.7542
 1853SOL    HW2 6980   3.008   7.557   4.656 -0.4329  0.2014 -1.5545
 1854SOL     OW 6981   2.698   5.231   7.646 -0.2923 -0.2004 -0.0998
 1854SOL    HW1 6982   2.667   5.281   7.722 -0.3721 -2.4128  1.4444
 1854SOL    HW2 6983   2.764   5.287   7.605 -1.2314  1.6372  0.7595
 1855SOL     OW 6984   3.966   2.947   6.952  0.1775 -0.5689  0.1580
 1855SOL    HW1 6985   3.924   2.947   7.038  0.6171 -1.7302  0.3946
 1855SOL    HW2 6986   3.897   2.922   6.891  0.0829 -0.6264  0.2891
 1856SOL     OW 6987   3.371   7.481   0.248 -0.1531 -0.1483 -0.6839
 1856SOL    HW1 6988   3.312   7.520   0.184 -1.4661 -0.6382  0.1884
 1856SOL    HW2 6989   3.314   7.433   0.307  1.1672 -0.9202  0.0025
 1857SOL     OW 6990   5.782   4.875   7.508 -0.5546  0.0435  0.1946
 1857SOL    HW1 6991   5.753   4.917   7.589 -1.1249 -1.0895  0.6038
 1857SOL    HW2 6992   5.703   4.871   7.454  0.0768  1.8745 -0.9387
 1858SOL     OW 6993   7.382   1.360   2.051 -0.4051 -0.4062  1.2360
 1858SOL    HW1 6994   7.390   1.305   1.974 -3.7288 -3.2871  2.6773
 1858SOL    HW2 6995   7.453   1.330   2.109  0.2200 -0.3731  0.5001
 1859SOL     OW 6996   1.385   3.475   2.720 -0.6474  0.5218  0.9786
 1859SOL    HW1 6997   1.472   3.438   2.737 -1.2418 -1.3504  0.1732
 1859SOL    HW2 6998   1.399   3.538   2.649 -0.1496 -0.8946 -0.2363
 1860SOL     OW 6999   1.302   1.505   4.977 -0.2578 -0.1181  0.8072
 1860SOL    HW1 7000   1.376   1.450   5.004 -0.8488 -1.6499 -0.5785
 1860SOL    HW2 7001   1.265   1.537   5.059  0.8188 -0.8176  1.5912
 1861SOL     OW 7002   7.926   0.144   2.132  0.2448 -0.0242  0.0780
 1861SOL    HW1 7003   7.936   0.199   2.209  0.0147 -0.5629  0.5050
 1861SOL    HW2 7004   7.958   0.058   2.159 -0.0761 -0.2842 -0.3407
 1862SOL     OW 7005   5.760   2.385   5.361 -0.4959  0.3283 -0.2389
 1862SOL    HW1 7006   5.762   2.440   5.439  1.2556  0.2136 -0.1683
 1862SOL    HW2 7007   5.787   2.443   5.290  1.9897 -0.5176 -0.0668
 1863SOL     OW 7008   2.469   1.047   3.503  0.5194 -0.2240  0.3408
 1863SOL    HW1 7009   2.417   1.107   3.556  0.7505  0.0662  0.2428
 1863SOL    HW2 7010   2.419   0.965   3.504  0.2087 -0.0374  0.4891
 1864SOL     OW 7011   7.359   6.320   1.261  0.5239 -0.4620 -0.3527
 1864SOL    HW1 7012   7.339   6.246   1.204 -2.3814  0.6674 -0.9835
 1864SOL    HW2 7013   7.445   6.301   1.297 -0.1300 -4.1448 -0.4240
 1865SOL     OW 7014   7.666   2.471   7.523  0.7632  0.0728 -0.2559
 1865SOL    HW1 7015   7.659   2.520   7.604 -0.5153 -0.2918 -0.1200
 1865SOL    HW2 7016   7.758   2.476   7.499  1.0856  0.4844  1.0252
 1866SOL     OW 7017   5.635   7.915   0.569  0.8371  0.1563  0.7613
 1866SOL    HW1 7018   5.561   7.891   0.512 -0.1646 -1.9010  2.7729
 1866SOL    HW2 7019   5.673   7.992   0.527 -0.8305 -0.2665 -1.7720
 1867SOL     OW 7020   2.110   2.586   0.437  0.0986  0.6201  0.2539
 1867SOL    HW1 7021   2.196   2.561   0.470  0.2083  1.2552  0.4593
 1867SOL    HW2 7022   2.128   2.627   0.352  0.1016  1.6765  0.7556
 1868SOL     OW 7023   6.660   6.612   6.022 -0.0710  0.1094  0.4193
 1868SOL    HW1 7024   6.585   6.659   5.986 -0.0216 -0.2010 -0.0868
 1868SOL    HW2 7025   6.691   6.668   6.093  0.0110  0.8613 -0.2027
 1869SOL     OW 7026   7.747   6.798   2.814 -0.4541 -0.5568  0.0203
 1869SOL    HW1 7027   7.665   6.759   2.782  0.6404 -1.5931 -1.6864
 1869SOL    HW2 7028   7.815   6.757   2.761  1.1009  1.0366  0.6909
 1870SOL     OW 7029   6.383   7.841   4.884  0.2888  0.3620  0.2235
 1870SOL    HW1 7030   6.469   7.838   4.925  0.3922  0.2502  0.0026
 1870SOL    HW2 7031   6.351   7.751   4.888  1.0861 -0.0466 -1.5790
 1871SOL     OW 7032   6.511   6.965   6.720  0.0119  0.1986  0.3727
 1871SOL    HW1 7033   6.473   6.996   6.802 -0.9009  0.3140 -0.0769
 1871SOL    HW2 7034   6.528   6.872   6.735 -2.5023 -0.4311 -0.0728
 1872SOL     OW 7035   6.010   0.072   3.360  0.0890  0.0659 -0.1562
 1872SOL    HW1 7036   6.025   0.113   3.275  0.5387 -0.5919 -0.4011
 1872SOL    HW2 7037   6.072  -0.001   3.363 -0.3771 -0.3160  0.4586
 1873SOL     OW 7038   1.002   1.356   5.509 -0.0175 -0.3127  0.4573
 1873SOL    HW1 7039   1.093   1.382   5.524  0.0815 -0.1228 -0.4471
 1873SOL    HW2 7040   0.960   1.435   5.475 -0.0247 -0.9533 -1.0852
 1874SOL     OW 7041   5.955   1.636   2.842 -0.5928  0.7126  0.0433
 1874SOL    HW1 7042   5.984   1.564   2.899  0.0459  1.0971  0.2066
 1874SOL    HW2 7043   5.902   1.692   2.899 -1.3672  0.2119 -0.1631
 1875SOL     OW 7044   2.956   3.861   3.936  0.1688  0.1270 -0.4459
 1875SOL    HW1 7045   2.904   3.860   3.855  0.3415  1.0905 -0.5816
 1875SOL    HW2 7046   2.933   3.779   3.979  0.5478 -0.7060 -1.7606
 1876SOL     OW 7047   7.580   4.083   6.094 -0.4810 -0.2684 -0.2275
 1876SOL    HW1 7048   7.525   4.057   6.167 -0.6359 -1.2098 -0.6615
 1876SOL    HW2 7049   7.580   4.007   6.036 -0.2289  0.3993 -1.1262
 1877SOL     OW 7050   7.966   6.169   2.478 -0.1340  0.1004 -0.6596
 1877SOL    HW1 7051   7.954   6.234   2.548  0.0522  0.8925 -1.3458
 1877SOL    HW2 7052   8.057   6.182   2.450  0.0821 -0.8503 -0.4256
 1878SOL     OW 7053   3.130   5.552   0.419  0.0446  0.2022  0.1789
 1878SOL    HW1 7054   3.198   5.610   0.454 -0.1809  0.2139  0.6030
 1878SOL    HW2 7055   3.178   5.480   0.379  0.3094  0.1190  0.6352
 1879SOL     OW 7056   6.646   1.807   1.413  0.0151  0.5439 -0.2192
 1879SOL    HW1 7057   6.560   1.795   1.454  0.9149  0.2247  1.6864
 1879SOL    HW2 7058   6.663   1.724   1.369 -1.4785  1.2914 -2.4090
 1880SOL     OW 7059   3.171   7.629   6.000  0.2358  0.5415  0.1678
 1880SOL    HW1 7060   3.208   7.687   6.066 -1.6151  2.3515 -0.2831
 1880SOL    HW2 7061   3.116   7.685   5.947 -1.9079 -1.6757 -0.1396
 1881SOL     OW 7062   4.094   4.838   0.704 -0.0441 -0.2777 -0.4369
 1881SOL    HW1 7063   4.111   4.846   0.798  2.1601  2.4831 -0.9421
 1881SOL    HW2 7064   4.120   4.748   0.682  1.3268 -0.3474  1.2712
 1882SOL     OW 7065   3.755   6.198   0.563  0.5404 -1.0047  0.3035
 1882SOL    HW1 7066   3.785   6.208   0.653  0.9907  0.0233  0.0562
 1882SOL    HW2 7067   3.673   6.247   0.559  0.5617 -0.9810  0.1377
 1883SOL     OW 7068   7.937   6.206   3.641 -0.0059  0.0707  0.4154
 1883SOL    HW1 7069   8.006   6.270   3.661  0.7370 -1.2802  2.4711
 1883SOL    HW2 7070   7.964   6.169   3.557  0.2992  1.4200 -0.1232
 1884SOL     OW 7071   5.462   6.317   5.762  0.3176 -0.3235  0.2702
 1884SOL    HW1 7072   5.529   6.250   5.773  2.0080  0.9652 -1.5409
 1884SOL    HW2 7073   5.492   6.390   5.815  1.4699  0.9609 -1.9804
 1885SOL     OW 7074   3.717   0.722   5.252 -0.0653  0.1969  0.5582
 1885SOL    HW1 7075   3.802   0.765   5.239  0.3674 -0.6184  0.6119
 1885SOL    HW2 7076   3.676   0.722   5.166  0.8090 -1.0648  0.1011
 1886SOL     OW 7077   0.478   1.318   6.295 -0.5214  0.2483  0.2802
 1886SOL    HW1 7078   0.483   1.261   6.218 -1.7632 -0.4496  0.6763
 1886SOL    HW2 7079   0.492   1.406   6.261 -0.2149 -0.1255 -0.6049
 1887SOL     OW 7080   4.433   1.246   5.659 -0.1187 -0.2692  0.3754
 1887SOL    HW1 7081   4.435   1.245   5.754 -0.8189 -1.4197  0.3875
 1887SOL    HW2 7082   4.402   1.159   5.634 -0.6502  0.2543 -0.8789
 1888SOL     OW 7083   7.938   0.378   7.378  0.2854  0.0771  0.2031
 1888SOL    HW1 7084   7.850   0.391   7.343  0.6893  2.4657 -0.0802
 1888SOL    HW2 7085   7.924   0.359   7.471 -0.5549 -1.1080 -0.1412
 1889SOL     OW 7086   2.182   2.752   1.015 -0.3034 -0.2607  0.3054
 1889SOL    HW1 7087   2.200   2.847   1.018 -0.4732 -0.1742 -0.9183
 1889SOL    HW2 7088   2.098   2.745   0.970  0.5764 -1.0632 -1.2822
 1890SOL     OW 7089   0.461   5.053   5.740  0.1712 -0.4386 -0.1279
 1890SOL    HW1 7090   0.494   5.100   5.663 -1.4218 -0.0597 -0.6148
 1890SOL    HW2 7091   0.470   4.961   5.717 -2.0655 -0.3425 -1.6203
 1891SOL     OW 7092   7.004   2.266   1.760 -0.0278  0.0981 -0.3693
 1891SOL    HW1 7093   6.942   2.278   1.688 -0.6349  0.3357  0.1787
 1891SOL    HW2 7094   6.972   2.188   1.805 -1.4993  1.6373  1.4336
 1892SOL     OW 7095   0.898   4.596   1.086  0.0439 -0.4830 -0.3690
 1892SOL    HW1 7096   0.830   4.623   1.024 -0.0575  0.0502 -0.0247
 1892SOL    HW2 7097   0.964   4.665   1.081 -0.1382 -0.2469  0.3860
 1893SOL     OW 7098   0.728   7.192   3.753 -0.6019  0.5647  0.6661
 1893SOL    HW1 7099   0.753   7.283   3.770  1.0453  0.4943 -1.0054
 1893SOL    HW2 7100   0.643   7.199   3.709  0.0490  1.4050 -0.5107
 1894SOL     OW 7101   1.853   1.042   3.686  0.3071  0.1250  0.7923
 1894SOL    HW1 7102   1.856   1.077   3.597  0.4238 -0.1650  0.6836
 1894SOL    HW2 7103   1.920   0.974   3.688 -1.0699 -1.2839  0.5000
 1895SOL     OW 7104   5.942   2.174   3.277 -0.0579  0.5665 -0.2313
 1895SOL    HW1 7105   5.929   2.266   3.254 -2.7100 -0.1002 -1.8167
 1895SOL    HW2 7106   5.978   2.135   3.197  0.5109  0.1251  0.2423
 1896SOL     OW 7107   5.884   2.184   7.394  0.4414  0.4614  0.3387
 1896SOL    HW1 7108   5.886   2.103   7.444 -2.7442  0.8943  1.3543
 1896SOL    HW2 7109   5.867   2.157   7.304  2.8231 -0.1001 -0.0236
 1897SOL     OW 7110   6.301   6.181   1.406  0.7574  0.3096 -1.0228
 1897SOL    HW1 7111   6.325   6.220   1.489  1.2621 -0.2197 -0.9155
 1897SOL    HW2 7112   6.337   6.092   1.409  2.5592  0.9091 -2.5991
 1898SOL     OW 7113   7.022   1.830   7.844  1.2665  0.7527  0.1955
 1898SOL    HW1 7114   6.954   1.775   7.805  0.9124  0.9839  0.4855
 1898SOL    HW2 7115   7.003   1.918   7.814  0.2735  1.1303  1.8297
 1899SOL     OW 7116   4.898   7.311   2.072 -0.0724 -0.3185  0.2371
 1899SOL    HW1 7117   4.980   7.272   2.103  0.2992  0.0260 -0.2936
 1899SOL    HW2 7118   4.866   7.362   2.146  0.3694 -0.1880  0.3403
 1900SOL     OW 7119   1.171   7.477   0.244  0.4349  0.0262  0.5553
 1900SOL    HW1 7120   1.181   7.528   0.325 -3.2425 -0.0372  1.2149
 1900SOL    HW2 7121   1.185   7.540   0.174 -1.6227  1.4818  1.3486
 1901SOL     OW 7122   2.097   2.578   2.401 -0.2576 -0.3080  0.4979
 1901SOL    HW1 7123   2.111   2.523   2.478 -0.1504 -0.1912  0.5604
 1901SOL    HW2 7124   2.030   2.531   2.350  0.6495 -1.0874 -0.0097
 1902SOL     OW 7125   4.546   7.841   8.007  1.0594  0.5253 -0.3987
 1902SOL    HW1 7126   4.553   7.830   8.102 -0.4056 -1.4791 -0.4712
 1902SOL    HW2 7127   4.487   7.915   7.996  0.3576  0.0767  0.2667
 1903SOL     OW 7128   3.723   6.369   5.593  0.3600 -0.1745  0.2376
 1903SOL    HW1 7129   3.742   6.283   5.632 -1.1376 -2.0600 -2.7649
 1903SOL    HW2 7130   3.628   6.377   5.599  0.5428  1.7231  1.1925
 1904SOL     OW 7131   7.025   5.896   1.612 -0.6304  0.1843 -0.5573
 1904SOL    HW1 7132   7.118   5.918   1.615 -0.5739 -0.0277  2.0651
 1904SOL    HW2 7133   7.023   5.800   1.605 -0.5674  0.0668  0.7065
 1905SOL     OW 7134   3.825   1.976   1.934  0.1745  0.1804 -0.3587
 1905SOL    HW1 7135   3.733   1.951   1.928 -0.0140  1.1582 -2.2857
 1905SOL    HW2 7136   3.860   1.962   1.846  1.7872  0.1579  0.2498
 1906SOL     OW 7137   6.944   0.417   3.220  0.8296 -0.1691 -0.8086
 1906SOL    HW1 7138   6.921   0.465   3.300  3.6312 -0.8595  0.5233
 1906SOL    HW2 7139   6.906   0.470   3.150 -0.4318  1.2948  0.8697
 1907SOL     OW 7140   4.674   4.520   6.420 -0.9207  0.2938  0.3194
 1907SOL    HW1 7141   4.679   4.490   6.329  3.7212  0.1641  0.3581
 1907SOL    HW2 7142   4.635   4.607   6.415 -0.2927  0.5048 -1.9176
 1908SOL     OW 7143   2.466   0.501   7.195 -0.1819  0.0858 -0.2720
 1908SOL    HW1 7144   2.403   0.513   7.265  1.1361 -1.1341  1.1973
 1908SOL    HW2 7145   2.489   0.408   7.199  0.5348  0.1667 -1.7897
 1909SOL     OW 7146   2.399   6.260   7.448  0.3361 -0.5432 -0.6438
 1909SOL    HW1 7147   2.323   6.271   7.391  0.1158  0.4130 -0.1942
 1909SOL    HW2 7148   2.378   6.310   7.527  1.6030  0.1065 -0.6828
 1910SOL     OW 7149   0.826   6.264   4.626 -0.1458  0.1341 -0.4253
 1910SOL    HW1 7150   0.784   6.179   4.636 -0.5811  0.4433  0.5703
 1910SOL    HW2 7151   0.798   6.296   4.541 -0.0501 -0.6740 -0.7652
 1911SOL     OW 7152   2.322   1.223   1.414  0.3211  0.2312 -0.0042
 1911SOL    HW1 7153   2.321   1.134   1.380 -0.4544  0.6289 -1.0834
 1911SOL    HW2 7154   2.331   1.278   1.336 -0.9595  1.1556  0.4799
 1912SOL     OW 7155   6.029   5.374   7.773  0.4143 -0.2219  0.2367
 1912SOL    HW1 7156   6.096   5.406   7.712  1.0257 -2.4783 -0.3781
 1912SOL    HW2 7157   5.947   5.410   7.740  0.8605 -0.5580 -1.3575
 1913SOL     OW 7158   7.960   3.155   0.644 -0.5383 -0.0344 -0.3554
 1913SOL    HW1 7159   7.946   3.089   0.712  2.4932  0.9148  1.3573
 1913SOL    HW2 7160   7.935   3.238   0.685  0.4393  0.4492 -0.6941
 1914SOL     OW 7161   8.024   1.514   1.725  0.5288 -0.6176 -0.0869
 1914SOL    HW1 7162   8.100   1.497   1.669  0.0282 -0.9633 -0.6747
 1914SOL    HW2 7163   7.983   1.428   1.735 -0.8981 -0.1440 -1.4290
 1915SOL     OW 7164   7.429   3.297   6.544 -0.7449 -0.8162 -0.4427
 1915SOL    HW1 7165   7.378   3.307   6.624  0.6931 -1.1591  0.5487
 1915SOL    HW2 7166   7.364   3.301   6.473 -1.9162  0.6242  0.6578
 1916SOL     OW 7167   5.102   2.492   3.833 -0.1644 -0.0610 -0.3640
 1916SOL    HW1 7168   5.121   2.549   3.758  1.5273  0.5383  0.4549
 1916SOL    HW2 7169   5.186   2.450   3.853 -0.3297  0.4790  1.7173
 1917SOL     OW 7170   6.877   1.949   5.956 -0.1231 -0.6546 -0.6843
 1917SOL    HW1 7171   6.942   1.931   5.888 -1.3384  0.1515 -2.1423
 1917SOL    HW2 7172   6.836   1.864   5.975  0.9297 -1.0599 -0.1808
 1918SOL     OW 7173   6.121   0.225   6.827 -0.8775  0.3232  0.5044
 1918SOL    HW1 7174   6.147   0.133   6.829 -1.3000  0.2132  1.5062
 1918SOL    HW2 7175   6.037   0.227   6.873 -1.1853  1.1138 -0.0802
 1919SOL     OW 7176   5.933   3.519   3.105  0.2202 -0.7017 -0.3531
 1919SOL    HW1 7177   5.860   3.458   3.098 -0.4989 -0.1198  1.4237
 1919SOL    HW2 7178   5.901   3.588   3.164  2.5231 -0.9633  1.3618
 1920SOL     OW 7179   6.536   7.223   7.661  0.2093 -0.5563  0.4117
 1920SOL    HW1 7180   6.463   7.180   7.706 -0.9486  0.3713 -0.4895
 1920SOL    HW2 7181   6.537   7.312   7.697  1.1748 -0.6771  0.7097
 1921SOL     OW 7182   6.062   4.708   8.014  0.2077  0.3502 -0.1195
 1921SOL    HW1 7183   6.016   4.743   8.091 -2.8362 -0.0081 -1.6347
 1921SOL    HW2 7184   6.123   4.778   7.989 -0.1861  1.3013  1.4196
 1922SOL     OW 7185   7.046   5.833   5.849  0.3596 -0.8052  0.2875
 1922SOL    HW1 7186   7.033   5.893   5.776  1.8413 -1.1657 -0.3011
 1922SOL    HW2 7187   6.971   5.773   5.845  0.2036 -0.5486 -0.6675
 1923SOL     OW 7188   4.912   1.470   7.974 -0.5171 -0.1251 -0.0036
 1923SOL    HW1 7189   5.000   1.506   7.985 -0.8196  0.0201  2.5320
 1923SOL    HW2 7190   4.925   1.388   7.926  0.8337  0.4970 -0.7435
 1924SOL     OW 7191   6.581   6.613   2.995  0.5990  0.3488 -0.5505
 1924SOL    HW1 7192   6.652   6.650   2.943  1.7035 -0.3056  0.4684
 1924SOL    HW2 7193   6.609   6.623   3.086 -0.7185  0.2842 -0.1144
 1925SOL     OW 7194   1.270   3.353   0.959 -0.0617  0.1473  0.5376
 1925SOL    HW1 7195   1.302   3.412   1.027  1.3645  1.0242 -0.8253
 1925SOL    HW2 7196   1.254   3.270   1.005  3.1718 -0.0304  1.5835
 1926SOL     OW 7197   0.235   1.644   2.802 -0.1100  0.2678  0.3371
 1926SOL    HW1 7198   0.170   1.688   2.856 -3.2998  0.0129 -2.8392
 1926SOL    HW2 7199   0.205   1.553   2.799  2.5279 -0.7095  1.5563
 1927SOL     OW 7200   5.552   5.960   6.341  0.5178  0.1993  0.0503
 1927SOL    HW1 7201   5.493   6.035   6.350 -2.1886 -1.8628  1.1333
 1927SOL    HW2 7202   5.525   5.919   6.259 -0.2013 -1.2110  0.9513
 1928SOL     OW 7203   6.223   6.580   2.563 -0.1010 -0.2101  0.3792
 1928SOL    HW1 7204   6.165   6.530   2.505 -0.0895 -2.6696  2.2947
 1928SOL    HW2 7205   6.311   6.555   2.536  0.2472  2.8733 -1.9654
 1929SOL     OW 7206   6.485   6.808   0.824  0.0882  0.1777  0.4807
 1929SOL    HW1 7207   6.476   6.902   0.837 -0.7403 -0.0679  1.8726
 1929SOL    HW2 7208   6.401   6.781   0.786  0.0536 -0.1066  0.7579
 1930SOL     OW 7209   6.424   6.692   7.310  0.6559 -0.1892 -0.0073
 1930SOL    HW1 7210   6.348   6.700   7.367  0.7483 -0.3802  0.1442
 1930SOL    HW2 7211   6.413   6.606   7.268 -0.3384  0.6886 -1.6187
 1931SOL     OW 7212   6.797   6.886   6.102  0.4225  0.7915  0.1966
 1931SOL    HW1 7213   6.767   6.873   6.192  0.4831  1.0315  0.2520
 1931SOL    HW2 7214   6.892   6.884   6.108  0.4248 -0.4950 -0.0586
 1932SOL     OW 7215   1.717   0.266   1.066 -0.4911  0.1511 -0.2237
 1932SOL    HW1 7216   1.717   0.172   1.081  0.8335  0.2797  0.7480
 1932SOL    HW2 7217   1.734   0.276   0.973 -0.1283 -0.5737 -0.2401
 1933SOL     OW 7218   7.939   2.362   2.766  0.2997 -0.2517  0.1065
 1933SOL    HW1 7219   7.989   2.405   2.696 -1.9568 -1.3412 -2.3269
 1933SOL    HW2 7220   7.985   2.280   2.781  0.3941 -0.3344 -0.6147
 1934SOL     OW 7221   1.309   6.356   1.483  0.0929 -0.3009 -0.6123
 1934SOL    HW1 7222   1.374   6.286   1.489 -0.4175 -0.6565  2.0374
 1934SOL    HW2 7223   1.331   6.415   1.555 -0.5933  1.3095 -1.6722
 1935SOL     OW 7224   1.862   2.486   1.065  0.1694  0.2858  1.0228
 1935SOL    HW1 7225   1.819   2.529   0.991  2.5905  1.6713  0.3327
 1935SOL    HW2 7226   1.867   2.394   1.038 -1.4285  0.2537  0.7215
 1936SOL     OW 7227   5.859   5.093   0.570  0.1587 -0.5998  0.4012
 1936SOL    HW1 7228   5.845   5.141   0.488  0.7181 -0.2163  0.5248
 1936SOL    HW2 7229   5.939   5.043   0.555  0.6951  0.0701  0.9810
 1937SOL     OW 7230   4.303   3.438   0.368  0.2975 -0.7868 -0.2796
 1937SOL    HW1 7231   4.257   3.495   0.429  1.4655 -0.7112  0.5547
 1937SOL    HW2 7232   4.379   3.489   0.339 -0.7377 -0.4156 -2.6159
 1938SOL     OW 7233   0.953   3.775   7.231 -0.4313  0.6376 -0.1516
 1938SOL    HW1 7234   0.891   3.798   7.300 -0.8030 -0.4753 -0.0846
 1938SOL    HW2 7235   1.010   3.710   7.272 -0.7154 -0.1083 -0.9096
 1939SOL     OW 7236   2.941   6.541   3.322 -0.2165 -0.2629  0.1261
 1939SOL    HW1 7237   2.969   6.533   3.413  0.4134 -0.8904 -0.1102
 1939SOL    HW2 7238   2.850   6.568   3.326  0.0940  0.7009  0.9357
 1940SOL     OW 7239   0.663   1.016   7.965  0.2559  0.1989  0.3664
 1940SOL    HW1 7240   0.596   1.083   7.979 -1.1628 -0.7149 -1.5690
 1940SOL    HW2 7241   0.634   0.942   8.019  0.9160  0.5503  1.2158
 1941SOL     OW 7242   5.439   6.226   1.719 -0.0384 -0.1316 -0.1769
 1941SOL    HW1 7243   5.429   6.312   1.677 -0.2172 -0.0098  0.1107
 1941SOL    HW2 7244   5.358   6.180   1.697  0.6186 -0.7152 -1.4406
 1942SOL     OW 7245   4.280   5.494   3.040  0.1919 -0.1163  0.4044
 1942SOL    HW1 7246   4.278   5.412   2.990  0.6149 -1.0416  1.8347
 1942SOL    HW2 7247   4.188   5.520   3.046  0.1133 -0.0741 -0.6634
 1943SOL     OW 7248   6.870   4.037   6.551 -0.6129 -0.8537 -0.0870
 1943SOL    HW1 7249   6.840   3.956   6.508 -0.1490 -0.8796 -0.3619
 1943SOL    HW2 7250   6.883   4.011   6.643  1.0076 -1.4967 -0.4662
 1944SOL     OW 7251   5.157   2.178   2.121 -0.3577  0.4544  0.4254
 1944SOL    HW1 7252   5.151   2.128   2.039  0.5781 -0.3752  0.8491
 1944SOL    HW2 7253   5.233   2.235   2.109 -0.2186  0.3307  0.7176
 1945SOL     OW 7254   4.173   6.216   5.100  0.2755 -0.1492 -0.5183
 1945SOL    HW1 7255   4.084   6.238   5.074  0.9399  2.5593 -0.8800
 1945SOL    HW2 7256   4.223   6.296   5.083  2.8613 -1.6780 -0.6787
 1946SOL     OW 7257   6.524   1.182   6.211  0.4331 -0.2197  0.1133
 1946SOL    HW1 7258   6.585   1.154   6.142  0.0854  0.1779 -0.3602
 1946SOL    HW2 7259   6.441   1.141   6.188 -0.3556  1.9683 -1.1687
 1947SOL     OW 7260   5.510   3.658   7.333 -0.5808 -0.0201  0.1140
 1947SOL    HW1 7261   5.446   3.724   7.359  0.1203  0.0360  1.7675
 1947SOL    HW2 7262   5.566   3.703   7.270 -0.9103  0.5512  0.2206
 1948SOL     OW 7263   4.562   1.546   1.969  0.1443  0.9383  0.1336
 1948SOL    HW1 7264   4.531   1.594   1.892  0.4443  2.1368  0.7358
 1948SOL    HW2 7265   4.483   1.526   2.019 -0.3475 -1.9593 -1.5890
 1949SOL     OW 7266   5.843   5.007   6.520  0.7157 -0.7918 -0.2080
 1949SOL    HW1 7267   5.783   4.983   6.450  0.1777 -1.6983  0.5238
 1949SOL    HW2 7268   5.800   5.079   6.566  0.7246 -0.6817 -0.3745
 1950SOL     OW 7269   7.565   1.903   7.521  0.0950 -0.8994  0.2115
 1950SOL    HW1 7270   7.608   1.959   7.586  0.3473  0.0743 -0.7654
 1950SOL    HW2 7271   7.613   1.820   7.525  0.3606 -0.7183  0.9809
 1951SOL     OW 7272   2.155   5.110   3.610 -0.4286  0.4176 -0.9211
 1951SOL    HW1 7273   2.246   5.121   3.639 -0.8983 -0.6104  1.1792
 1951SOL    HW2 7274   2.159   5.044   3.541  0.2519 -1.3599  0.7274
 1952SOL     OW 7275   0.570   4.089   2.794 -0.5231 -0.1782 -0.0443
 1952SOL    HW1 7276   0.579   4.038   2.875  1.1079 -0.0400 -0.0968
 1952SOL    HW2 7277   0.623   4.167   2.809 -2.3628  1.1743 -0.2692
 1953SOL     OW 7278   3.125   7.954   4.278 -0.0816 -0.7274 -0.4731
 1953SOL    HW1 7279   3.080   8.036   4.257 -2.0014 -1.0442  1.9076
 1953SOL    HW2 7280   3.171   7.972   4.360  1.8147 -1.2926 -1.3486
 1954SOL     OW 7281   7.759   6.974   5.869 -0.2172  0.3449  0.0997
 1954SOL    HW1 7282   7.688   6.925   5.911  0.3062  0.7034  1.4484
 1954SOL    HW2 7283   7.829   6.910   5.858 -0.6582  0.0326 -1.0813
 1955SOL     OW 7284   2.733   1.161   5.760  0.1220 -0.2499  0.3662
 1955SOL    HW1 7285   2.710   1.161   5.667  0.6454 -0.6359  0.2277
 1955SOL    HW2 7286   2.828   1.150   5.760  0.4353  2.0517  0.8892
 1956SOL     OW 7287   1.351   3.593   2.012  0.2882  0.6038 -0.0936
 1956SOL    HW1 7288   1.277   3.648   2.036  2.2599  3.5163 -0.0515
 1956SOL    HW2 7289   1.316   3.504   2.008 -2.4051  1.3232  3.2504
 1957SOL     OW 7290   5.478   1.121   5.182  0.5164  0.5004 -0.6716
 1957SOL    HW1 7291   5.401   1.166   5.216  0.3737  0.2858 -0.7104
 1957SOL    HW2 7292   5.449   1.030   5.169  0.4983  0.6312 -1.5934
 1958SOL     OW 7293   2.142   3.579   4.348 -0.6916 -0.4908  0.3926
 1958SOL    HW1 7294   2.071   3.617   4.296 -1.1756 -0.3169  1.1649
 1958SOL    HW2 7295   2.214   3.642   4.340 -0.5780 -0.7164 -0.4730
 1959SOL     OW 7296   6.561   4.926   6.865  0.2311 -0.6656 -0.5349
 1959SOL    HW1 7297   6.486   4.912   6.924  0.5045  2.0975  0.6194
 1959SOL    HW2 7298   6.638   4.914   6.920  0.5136  0.7592 -0.5800
 1960SOL     OW 7299   6.129   7.163   5.230 -0.6044 -0.1373 -0.3297
 1960SOL    HW1 7300   6.164   7.117   5.306 -1.9408 -1.3959 -0.4318
 1960SOL    HW2 7301   6.123   7.096   5.162 -0.6316  0.6811 -1.1578
 1961SOL     OW 7302   6.673   4.552   7.453 -0.7705 -0.3588  0.2146
 1961SOL    HW1 7303   6.685   4.464   7.488 -1.5080 -0.4845  0.1498
 1961SOL    HW2 7304   6.644   4.539   7.363 -1.3401 -0.0545  0.3492
 1962SOL     OW 7305   3.352   3.157   4.420  0.5723 -0.0776  0.4435
 1962SOL    HW1 7306   3.266   3.195   4.400  0.7900  0.4980  0.5734
 1962SOL    HW2 7307   3.413   3.230   4.409  0.8895 -0.1446  1.6708
 1963SOL     OW 7308   5.004   5.564   2.370  0.1258 -0.0021  0.4181
 1963SOL    HW1 7309   4.930   5.544   2.312  0.5153 -0.7529  0.1594
 1963SOL    HW2 7310   5.073   5.593   2.310  0.3176 -0.1488  0.5681
 1964SOL     OW 7311   1.535   0.797   3.976 -0.7871  0.4825  0.0967
 1964SOL    HW1 7312   1.552   0.833   3.889 -0.3719  0.6812  0.2592
 1964SOL    HW2 7313   1.512   0.873   4.029  0.1908  0.5273  0.4660
 1965SOL     OW 7314   0.770   2.156   0.470 -0.0031  0.0998 -0.1135
 1965SOL    HW1 7315   0.683   2.117   0.463  1.1627 -2.5462 -0.8558
 1965SOL    HW2 7316   0.782   2.203   0.388 -0.3257 -0.4012 -0.4519
 1966SOL     OW 7317   7.059   2.667   1.519 -0.6973  0.0294 -0.0239
 1966SOL    HW1 7318   7.108   2.585   1.506 -0.9732 -0.3369  1.0871
 1966SOL    HW2 7319   6.981   2.656   1.465 -0.3176 -0.0665 -0.5626
 1967SOL     OW 7320   1.570   0.099   3.967  0.3011  0.1170  1.0480
 1967SOL    HW1 7321   1.641   0.160   3.945  0.2807 -0.2837 -0.2435
 1967SOL    HW2 7322   1.612   0.013   3.964 -0.3107 -0.1630 -0.2032
 1968SOL     OW 7323   3.628   0.603   7.665  0.1170  0.8191 -0.3381
 1968SOL    HW1 7324   3.717   0.631   7.644 -0.0754  3.4839  1.7424
 1968SOL    HW2 7325   3.635   0.563   7.752 -0.3907 -1.3587 -1.2503
 1969SOL     OW 7326   5.423   1.797   4.020  0.0978  0.3414  0.2915
 1969SOL    HW1 7327   5.364   1.724   4.038  0.1519  0.2890  0.2564
 1969SOL    HW2 7328   5.414   1.812   3.926  0.4158  0.0931  0.2189
 1970SOL     OW 7329   3.498   7.517   4.625 -0.2152 -0.4098 -0.2024
 1970SOL    HW1 7330   3.429   7.573   4.660  1.0453  0.7888  0.4819
 1970SOL    HW2 7331   3.560   7.507   4.698  1.2264  0.0418 -1.3082
 1971SOL     OW 7332   3.089   1.186   0.979  0.0527 -0.4808  0.2278
 1971SOL    HW1 7333   3.114   1.124   0.911  0.0041  0.0545 -0.2772
 1971SOL    HW2 7334   3.164   1.245   0.988  0.0202 -0.4840  0.5673
 1972SOL     OW 7335   7.617   0.938   4.057 -0.1904 -0.0535 -0.1980
 1972SOL    HW1 7336   7.619   0.900   4.145 -1.0992  2.0797  0.8165
 1972SOL    HW2 7337   7.710   0.946   4.033  0.1416  0.5944  1.1686
 1973SOL     OW 7338   4.548   7.286   2.547  0.2115  0.6903 -0.6352
 1973SOL    HW1 7339   4.536   7.203   2.594 -2.2047  1.2970 -0.0857
 1973SOL    HW2 7340   4.511   7.352   2.605  0.1073  1.8854 -2.0290
 1974SOL     OW 7341   4.442   6.514   5.567  0.0776  0.0260 -0.2957
 1974SOL    HW1 7342   4.433   6.593   5.621 -0.0996 -0.8162  0.9428
 1974SOL    HW2 7343   4.375   6.525   5.499 -1.8806 -0.3080  1.4760
 1975SOL     OW 7344   6.056   0.648   3.335  0.9199  0.2617  0.0769
 1975SOL    HW1 7345   6.125   0.697   3.291  1.4358  0.0478  0.6358
 1975SOL    HW2 7346   6.097   0.566   3.363  0.5877  0.3528  0.8711
 1976SOL     OW 7347   4.531   4.626   7.675 -0.2591 -0.1903 -0.1267
 1976SOL    HW1 7348   4.490   4.692   7.619  1.1830 -0.2245 -1.2896
 1976SOL    HW2 7349   4.582   4.677   7.738  1.8077 -0.1251 -1.7579
 1977SOL     OW 7350   1.919   6.038   3.704 -0.2086  0.4821  0.3242
 1977SOL    HW1 7351   1.852   6.103   3.723  0.2476  1.2228 -0.5046
 1977SOL    HW2 7352   1.884   5.988   3.630 -0.0665  0.5450  0.2133
 1978SOL     OW 7353   1.327   2.685   3.976 -0.0969 -0.0193  0.0795
 1978SOL    HW1 7354   1.390   2.613   3.971  0.7475  0.7491 -0.4759
 1978SOL    HW2 7355   1.299   2.687   4.067  0.9422 -0.1403  0.4051
 1979SOL     OW 7356   0.381   0.148   0.868  0.2378  0.2631  0.3146
 1979SOL    HW1 7357   0.297   0.102   0.867 -0.6740  1.8252  1.2052
 1979SOL    HW2 7358   0.410   0.146   0.777 -0.2443 -1.1540  0.1513
 1980SOL     OW 7359   1.971   1.348   5.808  0.0320 -0.1679 -0.1703
 1980SOL    HW1 7360   1.882   1.374   5.831  0.0721  0.9759 -1.1731
 1980SOL    HW2 7361   2.016   1.342   5.893 -0.4239  1.5375  0.2470
 1981SOL     OW 7362   3.413   7.322   4.466 -0.0185  0.8344 -0.5494
 1981SOL    HW1 7363   3.436   7.400   4.517  0.9212  0.7835 -0.8634
 1981SOL    HW2 7364   3.496   7.275   4.457 -0.8930 -1.2304  1.3010
 1982SOL     OW 7365   3.052   5.383   2.086 -0.3459 -0.3939 -0.2113
 1982SOL    HW1 7366   2.971   5.336   2.067  0.5424 -3.1242  2.0633
 1982SOL    HW2 7367   3.121   5.325   2.053  0.8090  2.3816 -3.1472
 1983SOL     OW 7368   4.790   3.391   2.181  0.1089  0.5162  0.5195
 1983SOL    HW1 7369   4.756   3.429   2.100 -0.3484 -1.1686 -0.1056
 1983SOL    HW2 7370   4.860   3.332   2.153 -1.0063 -1.1997  1.1724
 1984SOL     OW 7371   7.788   2.310   3.203  0.0820  0.0131 -0.7780
 1984SOL    HW1 7372   7.709   2.327   3.152  0.1926  1.9347 -0.3894
 1984SOL    HW2 7373   7.797   2.387   3.260  1.8271 -0.5021 -0.2841
 1985SOL     OW 7374   4.614   0.913   0.663 -0.0888 -0.5150  0.1562
 1985SOL    HW1 7375   4.670   0.990   0.653 -1.3959  0.5942  0.9588
 1985SOL    HW2 7376   4.585   0.916   0.755 -2.2285 -0.4695 -0.4622
 1986SOL     OW 7377   5.432   6.484   1.585  0.0894  0.7505  0.5898
 1986SOL    HW1 7378   5.412   6.438   1.504  2.0933  1.2806 -0.2629
 1986SOL    HW2 7379   5.349   6.525   1.610 -0.3419  1.4403 -1.7411
 1987SOL     OW 7380   2.533   7.781   1.322  0.5697 -0.1776 -0.1845
 1987SOL    HW1 7381   2.458   7.735   1.358 -0.6312  1.7508 -0.0728
 1987SOL    HW2 7382   2.522   7.778   1.227  0.8759 -0.7188 -0.2039
 1988SOL     OW 7383   1.035   7.624   2.551  0.0976  0.4826  0.3973
 1988SOL    HW1 7384   0.985   7.548   2.581 -0.6171 -0.1588 -2.0882
 1988SOL    HW2 7385   1.103   7.637   2.617 -0.2787 -1.7924  1.3230
 1989SOL     OW 7386   1.996   1.543   4.334 -0.6803 -0.2761 -0.1926
 1989SOL    HW1 7387   2.008   1.458   4.291 -1.2883 -0.3374 -0.2386
 1989SOL    HW2 7388   2.077   1.556   4.383  0.2984  0.0655 -1.8221
 1990SOL     OW 7389   4.192   4.013   3.354 -0.3531 -0.2817 -0.0454
 1990SOL    HW1 7390   4.139   4.006   3.433 -1.7742 -1.3382 -1.0385
 1990SOL    HW2 7391   4.282   4.016   3.385 -0.8735 -0.7622  1.5937
 1991SOL     OW 7392   4.967   7.706   3.855 -0.2252 -0.2074 -0.1050
 1991SOL    HW1 7393   4.941   7.615   3.846  1.8690 -0.6527 -3.0498
 1991SOL    HW2 7394   5.022   7.708   3.933 -0.0464 -1.5516 -0.1751
 1992SOL     OW 7395   1.386   6.288   3.532 -0.0496  0.1299  0.1834
 1992SOL    HW1 7396   1.323   6.220   3.507 -0.5806 -0.5980  3.1900
 1992SOL    HW2 7397   1.353   6.367   3.488 -0.7248 -1.0279 -1.5085
 1993SOL     OW 7398   1.075   4.383   5.851  0.5998 -0.1418  0.1879
 1993SOL    HW1 7399   1.014   4.327   5.804  0.3532  0.6926 -0.5213
 1993SOL    HW2 7400   1.087   4.459   5.794  1.7990  0.0104  0.6064
 1994SOL     OW 7401   3.399   5.719   2.137 -0.5023  0.6518  0.4851
 1994SOL    HW1 7402   3.353   5.746   2.216 -1.3258  0.5198  0.0635
 1994SOL    HW2 7403   3.330   5.693   2.076  0.1151  0.7022 -0.2617
 1995SOL     OW 7404   7.138   7.915   7.253 -0.1215 -0.1725  0.0480
 1995SOL    HW1 7405   7.200   7.883   7.320 -0.1969  0.0770  0.2367
 1995SOL    HW2 7406   7.190   7.973   7.198 -0.8767  2.7246  2.1466
 1996SOL     OW 7407   1.047   1.428   7.390 -0.0974 -0.1749 -0.2964
 1996SOL    HW1 7408   1.052   1.516   7.354 -1.7850  0.0680  0.0072
 1996SOL    HW2 7409   1.132   1.389   7.368  0.0259  0.9234 -1.9828
 1997SOL     OW 7410   5.227   6.193   2.428 -0.0594  0.4131  0.1654
 1997SOL    HW1 7411   5.296   6.128   2.415 -1.1779 -0.5908 -1.0084
 1997SOL    HW2 7412   5.197   6.180   2.518  0.0786 -0.3494  0.1022
 1998SOL     OW 7413   0.589   4.874   0.073 -0.5126 -0.2504 -0.0045
 1998SOL    HW1 7414   0.521   4.823   0.030  1.1381 -0.2858 -2.7930
 1998SOL    HW2 7415   0.566   4.871   0.166 -2.7685 -2.5435 -0.5318
 1999SOL     OW 7416   5.625   7.672   7.212  0.0962  0.1129 -0.0869
 1999SOL    HW1 7417   5.625   7.578   7.192  0.4547  0.3549 -1.3173
 1999SOL    HW2 7418   5.532   7.696   7.214 -0.0291 -0.3951  0.9722
 2000SOL     OW 7419   5.258   4.955   3.938  0.1530  0.1408  0.2129
 2000SOL    HW1 7420   5.195   4.925   4.003  1.3860 -4.1925 -0.3249
 2000SOL    HW2 7421   5.215   4.940   3.854  1.1053 -0.9017 -0.1030
 2001SOL     OW 7422   6.187   6.662   7.457  0.3607  0.4471 -0.5817
 2001SOL    HW1 7423   6.215   6.664   7.548 -1.3156  0.7380 -0.0382
 2001SOL    HW2 7424   6.102   6.619   7.458 -0.4108  1.8066 -1.7756
 2002SOL     OW 7425   6.920   0.921   5.559  0.6205  0.1814  0.7516
 2002SOL    HW1 7426   6.964   0.888   5.637  0.7942  1.0041  1.0163
 2002SOL    HW2 7427   6.991   0.940   5.498  0.5258  0.0516  0.6031
 2003SOL     OW 7428   0.762   4.439   7.036  0.2773  0.3528 -0.3852
 2003SOL    HW1 7429   0.737   4.367   6.979  2.5505 -0.9253  0.1150
 2003SOL    HW2 7430   0.719   4.516   6.999 -2.5566 -1.2681 -0.7106
 2004SOL     OW 7431   6.487   3.340   5.287 -0.1713 -0.2442  0.1975
 2004SOL    HW1 7432   6.496   3.249   5.258  1.4609  0.1611 -0.6841
 2004SOL    HW2 7433   6.482   3.334   5.383  0.6319 -1.2303  0.1882
 2005SOL     OW 7434   0.904   0.194   4.509 -0.8433  0.1891 -0.0951
 2005SOL    HW1 7435   0.947   0.209   4.425 -1.7161  1.5720 -0.3332
 2005SOL    HW2 7436   0.812   0.181   4.487 -0.7418 -1.8293  0.4752
 2006SOL     OW 7437   2.974   6.372   1.165 -0.5920  0.2038 -0.5819
 2006SOL    HW1 7438   3.002   6.350   1.253  0.1617  0.8515 -0.6466
 2006SOL    HW2 7439   3.031   6.321   1.108 -1.4186 -0.6118 -0.7073
 2007SOL     OW 7440   7.268   0.696   5.328  0.1061  0.0449  0.3271
 2007SOL    HW1 7441   7.212   0.619   5.316  0.0791  0.2143 -0.6615
 2007SOL    HW2 7442   7.310   0.710   5.244  0.5807  0.7584  0.6659
 2008SOL     OW 7443   5.877   4.424   2.530 -0.2018 -0.0707 -0.0416
 2008SOL    HW1 7444   5.907   4.334   2.517 -0.6788 -0.3954  0.9796
 2008SOL    HW2 7445   5.911   4.448   2.616 -0.9355  0.3627  0.1342
 2009SOL     OW 7446   5.398   1.049   6.586  0.2596  0.1514  0.0951
 2009SOL    HW1 7447   5.436   1.023   6.670 -1.2615  0.3753  0.8838
 2009SOL    HW2 7448   5.392   1.144   6.590 -1.0786  0.0775  0.3231
 2010SOL     OW 7449   7.095   6.538   2.354 -1.0980  0.5027 -0.2099
 2010SOL    HW1 7450   7.058   6.460   2.311 -0.5011  1.3581 -2.3990
 2010SOL    HW2 7451   7.190   6.524   2.353 -1.0286  0.9108  0.1122
 2011SOL     OW 7452   0.096   6.961   0.649 -0.0847  0.1134  0.3230
 2011SOL    HW1 7453   0.039   6.994   0.579 -0.8775 -2.2013 -0.2325
 2011SOL    HW2 7454   0.038   6.948   0.724  0.4915  1.2798  0.9895
 2012SOL     OW 7455   6.467   2.321   3.972  0.2349 -0.4356  0.2276
 2012SOL    HW1 7456   6.547   2.269   3.969  0.2499 -0.5433  1.6957
 2012SOL    HW2 7457   6.459   2.358   3.884  0.4501 -2.5474 -0.7634
 2013SOL     OW 7458   1.833   1.837   3.993  0.8908  0.2842  0.1135
 2013SOL    HW1 7459   1.871   1.816   3.908 -0.3314 -0.9002 -0.1814
 2013SOL    HW2 7460   1.908   1.855   4.050  1.7188  1.2267 -1.2309
 2014SOL     OW 7461   2.369   2.647   1.374  0.6796 -0.4223  0.1290
 2014SOL    HW1 7462   2.420   2.684   1.302 -0.9265  0.6344 -0.5077
 2014SOL    HW2 7463   2.386   2.706   1.448 -1.2166  1.2466 -0.6604
 2015SOL     OW 7464   6.037   5.171   5.822 -0.4094  0.2210  0.2649
 2015SOL    HW1 7465   6.107   5.113   5.850 -2.0365 -1.1122  1.8143
 2015SOL    HW2 7466   6.010   5.138   5.737 -0.4326 -0.4641  0.5373
 2016SOL     OW 7467   4.922   7.824   7.382 -0.0256 -0.0819 -0.0338
 2016SOL    HW1 7468   5.013   7.840   7.354  0.2949 -1.9659 -0.2127
 2016SOL    HW2 7469   4.921   7.846   7.475  0.9384 -1.1040  0.2450
 2017SOL     OW 7470   6.456   1.910   0.603  0.1508  0.1471 -0.0701
 2017SOL    HW1 7471   6.369   1.910   0.562 -0.5830 -0.0116  1.4021
 2017SOL    HW2 7472   6.478   2.003   0.613  0.4804  0.1863 -1.0809
 2018SOL     OW 7473   0.260   0.802   1.450 -0.4162  0.3012 -0.0716
 2018SOL    HW1 7474   0.352   0.818   1.471 -0.3374  1.5935 -1.2657
 2018SOL    HW2 7475   0.250   0.834   1.360 -1.5736 -1.6380 -0.6949
 2019SOL     OW 7476   3.891   1.858   4.789  0.0367 -0.0235  0.6460
 2019SOL    HW1 7477   3.884   1.827   4.879 -1.3707 -0.4519  0.4091
 2019SOL    HW2 7478   3.891   1.954   4.797 -0.2368 -0.0590  1.0902
 2020SOL     OW 7479   2.905   5.971   1.640 -0.0765 -0.6011 -0.2174
 2020SOL    HW1 7480   2.934   6.014   1.720 -0.7854  0.9336 -0.7581
 2020SOL    HW2 7481   2.965   6.002   1.572 -1.1943  0.3813 -0.7983
 2021SOL     OW 7482   0.188   5.896   2.402 -0.0412  0.3977  0.0165
 2021SOL    HW1 7483   0.243   5.960   2.357  0.1330  0.3975  0.2287
 2021SOL    HW2 7484   0.223   5.892   2.491 -1.1631  1.3004  0.5084
 2022SOL     OW 7485   3.140   0.479   1.947 -0.2117 -0.3527  0.2203
 2022SOL    HW1 7486   3.179   0.553   1.900 -0.7605  1.3685  2.2758
 2022SOL    HW2 7487   3.057   0.463   1.901  0.4528 -0.4934 -0.9590
 2023SOL     OW 7488   7.064   5.087   5.293 -0.2373 -1.0533 -0.3738
 2023SOL    HW1 7489   7.027   5.090   5.381  1.0463 -2.6156  0.2618
 2023SOL    HW2 7490   6.999   5.131   5.239 -0.7970  0.4842  1.4228
 2024SOL     OW 7491   1.168   5.918   6.359 -0.0100  0.7332  0.1566
 2024SOL    HW1 7492   1.213   5.896   6.278  0.4939 -1.1451  0.8809
 2024SOL    HW2 7493   1.178   5.840   6.414 -1.3248  1.5073  1.5946
 2025SOL     OW 7494   1.183   0.711   2.899  0.6349 -0.0751  0.3933
 2025SOL    HW1 7495   1.090   0.710   2.875  0.4441  0.6443  1.0560
 2025SOL    HW2 7496   1.195   0.794   2.945  1.5743 -0.2343  0.4596
 2026SOL     OW 7497   4.577   5.755   1.712 -0.3894  0.1068 -0.1115
 2026SOL    HW1 7498   4.548   5.667   1.689  1.3834 -1.0725  1.8790
 2026SOL    HW2 7499   4.556   5.763   1.805 -0.2437  1.7078 -0.1912
 2027SOL     OW 7500   6.728   7.820   0.087  0.2447 -0.2682 -0.5665
 2027SOL    HW1 7501   6.779   7.817   0.006  0.0281 -1.4827 -0.6708
 2027SOL    HW2 7502   6.637   7.820   0.058  0.1172 -2.6589 -0.3321
 2028SOL     OW 7503   1.211   0.998   1.523 -0.2821  0.1904  0.0593
 2028SOL    HW1 7504   1.157   1.073   1.549 -1.1708 -0.4327  0.0601
 2028SOL    HW2 7505   1.231   0.954   1.606  0.6593  0.6972  0.1079
 2029SOL     OW 7506   0.222   1.314   5.381  0.2841  0.2264 -0.2249
 2029SOL    HW1 7507   0.248   1.299   5.290 -0.3165 -1.3638 -0.1543
 2029SOL    HW2 7508   0.300   1.292   5.432  0.2418 -0.0766 -0.2883
 2030SOL     OW 7509   3.911   5.717   2.341 -0.3418 -0.3033  0.2274
 2030SOL    HW1 7510   3.956   5.652   2.287 -1.7961 -0.4389 -0.8987
 2030SOL    HW2 7511   3.818   5.694   2.332 -0.7999  1.2457  0.7423
 2031SOL     OW 7512   7.439   4.174   4.192  0.2213  0.0111 -0.2206
 2031SOL    HW1 7513   7.474   4.085   4.200  0.3654  0.0562 -0.3504
 2031SOL    HW2 7514   7.380   4.169   4.117  0.2013  0.0158 -0.2052
 2032SOL     OW 7515   0.786   0.301   3.478  0.5954  0.1265 -0.1259
 2032SOL    HW1 7516   0.693   0.325   3.482  0.9618  1.3969  1.8298
 2032SOL    HW2 7517   0.785   0.210   3.447 -1.4835 -0.6960  2.0122
 2033SOL     OW 7518   4.011   4.109   1.029 -0.3544 -0.0215  0.4343
 2033SOL    HW1 7519   3.935   4.085   1.083 -1.0585  0.7704 -0.1667
 2033SOL    HW2 7520   4.045   4.189   1.070  0.4148 -0.6126  0.9479
 2034SOL     OW 7521   5.154   6.601   2.889  0.0320  0.0814 -0.1596
 2034SOL    HW1 7522   5.163   6.514   2.927 -1.5006  0.0509  0.1847
 2034SOL    HW2 7523   5.080   6.640   2.934 -0.1510  1.0627 -1.2487
 2035SOL     OW 7524   7.712   0.196   3.812  0.4327 -0.2955  0.0632
 2035SOL    HW1 7525   7.688   0.204   3.905 -0.5187  1.4830 -0.3062
 2035SOL    HW2 7526   7.805   0.219   3.810  0.8295 -1.6755  0.7180
 2036SOL     OW 7527   6.715   1.227   0.824  0.1865 -0.6960  0.0019
 2036SOL    HW1 7528   6.724   1.288   0.897 -0.8913 -2.0404  1.3516
 2036SOL    HW2 7529   6.622   1.233   0.800  0.4144 -0.6749 -0.9052
 2037SOL     OW 7530   3.941   7.341   4.886  0.0322  0.6153 -1.0854
 2037SOL    HW1 7531   3.873   7.383   4.939  0.1284 -0.0563 -0.3998
 2037SOL    HW2 7532   3.980   7.412   4.835 -1.7417  0.8836 -2.1408
 2038SOL     OW 7533   3.404   4.234   7.317  0.2284 -0.4770  0.3882
 2038SOL    HW1 7534   3.494   4.225   7.287  0.3813 -0.1187  0.7210
 2038SOL    HW2 7535   3.392   4.328   7.327 -0.0630 -0.5447  0.6937
 2039SOL     OW 7536   4.364   8.039   1.840 -0.4050  0.3372  0.7830
 2039SOL    HW1 7537   4.286   7.994   1.870 -0.5545 -0.2118 -0.3550
 2039SOL    HW2 7538   4.437   7.984   1.869 -0.6385 -1.6330 -1.9949
 2040SOL     OW 7539   1.962   4.962   3.927  0.3250  0.1955  1.0037
 2040SOL    HW1 7540   1.891   4.900   3.943  0.4923 -0.3471 -0.1889
 2040SOL    HW2 7541   2.039   4.921   3.966  0.2525  0.0899  1.0353
 2041SOL     OW 7542   2.426   6.906   3.347  0.1103 -0.6431  0.1261
 2041SOL    HW1 7543   2.342   6.946   3.367  0.3545 -0.5540  0.9769
 2041SOL    HW2 7544   2.405   6.840   3.280 -0.6585 -0.7383  0.4512
 2042SOL     OW 7545   1.921   7.902   3.954  0.0749 -0.2862 -0.1351
 2042SOL    HW1 7546   1.942   7.899   3.860  1.0336  2.0134 -0.0626
 2042SOL    HW2 7547   1.943   7.991   3.980 -0.4381 -0.7977  2.2452
 2043SOL     OW 7548   0.845   5.088   1.624  0.3914  0.0556  0.6404
 2043SOL    HW1 7549   0.807   5.159   1.573 -0.1990 -0.1970  0.7191
 2043SOL    HW2 7550   0.770   5.037   1.654  0.8231 -2.8595 -2.6174
 2044SOL     OW 7551   1.917   4.215   0.740  0.1318  0.1191  0.1581
 2044SOL    HW1 7552   1.897   4.221   0.647  1.3624 -0.1811 -0.1423
 2044SOL    HW2 7553   2.010   4.191   0.744 -0.1365 -0.8802  1.4493
 2045SOL     OW 7554   4.804   1.076   7.358 -0.8933  0.3696 -0.3147
 2045SOL    HW1 7555   4.729   1.096   7.414  0.6120 -0.5623  2.2188
 2045SOL    HW2 7556   4.792   0.984   7.334  0.1370 -0.2576  1.4012
 2046SOL     OW 7557   7.463   3.866   7.661  0.0349  0.1851  0.0048
 2046SOL    HW1 7558   7.449   3.775   7.687  1.3284 -0.1033 -0.2556
 2046SOL    HW2 7559   7.462   3.915   7.743  2.3420 -0.4907  0.5107
 2047SOL     OW 7560   4.228   2.366   6.853  0.3628  0.7318  0.0335
 2047SOL    HW1 7561   4.178   2.446   6.833 -0.8627  0.4298  1.6495
 2047SOL    HW2 7562   4.227   2.361   6.949 -1.7612 -2.4612  0.0135
 2048SOL     OW 7563   7.365   6.974   1.305  0.0626 -0.4517 -0.6325
 2048SOL    HW1 7564   7.448   6.941   1.338 -1.4061 -2.3767  1.3599
 2048SOL    HW2 7565   7.309   6.983   1.382 -1.3099  1.8409 -1.7595
 2049SOL     OW 7566   2.287   2.100   1.975 -0.3194 -0.4705 -0.1651
 2049SOL    HW1 7567   2.345   2.027   1.998 -0.0136 -0.2385 -0.1906
 2049SOL    HW2 7568   2.199   2.069   2.000  0.0697  0.1132  2.2274
 2050SOL     OW 7569   4.869   3.958   3.981 -0.0875 -0.3370 -0.2439
 2050SOL    HW1 7570   4.844   4.049   3.997 -1.8815 -0.7591 -0.4423
 2050SOL    HW2 7571   4.953   3.948   4.027 -0.3269  1.1419  0.5873
 2051SOL     OW 7572   0.990   0.819   1.009 -0.4699 -0.1022 -0.4312
 2051SOL    HW1 7573   1.048   0.742   1.010 -0.9611 -0.4766  1.1342
 2051SOL    HW2 7574   0.918   0.793   0.952 -0.3729 -0.6107 -0.3312
 2052SOL     OW 7575   2.585   6.784   7.506 -0.2904  0.1843  0.5190
 2052SOL    HW1 7576   2.603   6.832   7.426  1.7156 -0.5266  0.4996
 2052SOL    HW2 7577   2.631   6.701   7.496 -0.9520 -0.4026  1.9333
 2053SOL     OW 7578   6.573   7.724   3.788  0.5284 -0.2255 -0.2431
 2053SOL    HW1 7579   6.487   7.690   3.763  0.5653 -0.7859  0.3668
 2053SOL    HW2 7580   6.568   7.736   3.883  0.9002  0.3892 -0.2943
 2054SOL     OW 7581   0.534   6.550   1.449 -0.0656 -0.0170  0.6693
 2054SOL    HW1 7582   0.579   6.465   1.450  0.2715  0.1182 -0.8569
 2054SOL    HW2 7583   0.605   6.614   1.440 -0.3855  0.3815  0.9674
 2055SOL     OW 7584   2.060   7.827   5.762 -0.0668  0.3002  0.2881
 2055SOL    HW1 7585   2.053   7.917   5.732  1.0802 -0.2911 -1.9752
 2055SOL    HW2 7586   2.154   7.811   5.767 -0.2379 -1.1115 -0.5498
 2056SOL     OW 7587   3.074   1.631   7.829  0.6387 -0.2864  0.5005
 2056SOL    HW1 7588   3.124   1.696   7.779  0.4592  0.9243  1.8391
 2056SOL    HW2 7589   3.141   1.570   7.860  1.0638  0.2917  0.7497
 2057SOL     OW 7590   0.870   7.326   4.319 -0.2597  0.2484  0.4472
 2057SOL    HW1 7591   0.916   7.407   4.299 -0.2677  0.1768  0.1321
 2057SOL    HW2 7592   0.847   7.333   4.412  0.3897  0.2838  0.6069
 2058SOL     OW 7593   2.278   7.448   5.922 -0.0356 -0.4154  0.3214
 2058SOL    HW1 7594   2.350   7.471   5.981  0.3505  0.7251 -0.5389
 2058SOL    HW2 7595   2.233   7.376   5.965 -1.2879  1.9160  3.2687
 2059SOL     OW 7596   7.892   2.466   4.556  0.2399 -0.0393 -0.7532
 2059SOL    HW1 7597   7.861   2.483   4.645 -1.3446  1.4858 -1.5294
 2059SOL    HW2 7598   7.834   2.398   4.523  0.5447 -0.2929 -0.7655
 2060SOL     OW 7599   0.601   0.668   5.056  0.1568 -0.5769 -0.3200
 2060SOL    HW1 7600   0.566   0.620   4.981 -0.3757 -1.1402  0.2696
 2060SOL    HW2 7601   0.681   0.709   5.024  0.4521 -1.6061 -0.9262
 2061SOL     OW 7602   3.198   6.670   5.600 -0.6012 -0.3230 -0.3948
 2061SOL    HW1 7603   3.161   6.717   5.675 -1.8531 -2.0766  0.1602
 2061SOL    HW2 7604   3.292   6.686   5.607 -0.7371 -0.0098  1.2606
 2062SOL     OW 7605   0.570   7.261   5.333 -0.1137 -0.6188  0.3502
 2062SOL    HW1 7606   0.479   7.234   5.344 -0.4377  0.7001  1.3121
 2062SOL    HW2 7607   0.611   7.243   5.418 -0.7630  3.1401  1.6437
 2063SOL     OW 7608   1.021   1.478   3.862 -0.7458  0.2930 -0.1108
 2063SOL    HW1 7609   0.967   1.401   3.840 -1.0099 -0.0009  1.4229
 2063SOL    HW2 7610   1.057   1.507   3.778  0.6510 -2.4646 -0.5650
 2064SOL     OW 7611   5.066   6.173   2.716  0.0234  0.4187  0.4033
 2064SOL    HW1 7612   5.030   6.104   2.771 -0.7263  0.1194 -0.4398
 2064SOL    HW2 7613   5.160   6.174   2.736  0.2623 -1.6667 -0.4323
 2065SOL     OW 7614   7.224   3.523   0.892 -0.7917 -0.1393  0.8006
 2065SOL    HW1 7615   7.168   3.597   0.869 -2.8642 -1.1431  2.3369
 2065SOL    HW2 7616   7.166   3.447   0.890  1.1277 -1.6524 -0.0689
 2066SOL     OW 7617   7.409   7.324   3.846 -0.3744 -0.1214 -0.1932
 2066SOL    HW1 7618   7.467   7.286   3.779 -1.4012 -2.5943  0.2271
 2066SOL    HW2 7619   7.377   7.405   3.806  1.0722 -0.1840 -1.6004
 2067SOL     OW 7620   3.319   5.006   3.430 -0.9559  0.0524 -0.1439
 2067SOL    HW1 7621   3.383   4.935   3.424  1.6397  1.9792  2.1377
 2067SOL    HW2 7622   3.249   4.971   3.484  0.8210 -0.5509  1.9441
 2068SOL     OW 7623   0.130   7.514   3.663 -1.0652 -0.1838 -0.6211
 2068SOL    HW1 7624   0.093   7.438   3.707 -0.8614  0.0062 -0.1120
 2068SOL    HW2 7625   0.182   7.478   3.591 -0.8573 -0.5342 -0.2976
 2069SOL     OW 7626   0.833   4.538   1.377 -0.5197  0.6087  0.5546
 2069SOL    HW1 7627   0.737   4.543   1.374 -0.6001 -0.7444 -1.7955
 2069SOL    HW2 7628   0.862   4.604   1.314  0.1015  0.8781  1.1125
 2070SOL     OW 7629   7.738   1.594   0.244 -0.3809 -0.4772  0.0873
 2070SOL    HW1 7630   7.803   1.546   0.193  1.1433  1.2533  0.2795
 2070SOL    HW2 7631   7.738   1.551   0.330  2.4654  0.9743  0.9271
 2071SOL     OW 7632   5.453   6.424   2.766  0.0962  0.2061  0.4920
 2071SOL    HW1 7633   5.452   6.512   2.804  2.0706  0.6558 -0.3623
 2071SOL    HW2 7634   5.395   6.430   2.690  0.3886  0.8627  0.3088
 2072SOL     OW 7635   2.997   7.594   2.385 -0.1662 -0.4405 -0.0670
 2072SOL    HW1 7636   2.980   7.662   2.449  1.2156 -1.4272  1.4374
 2072SOL    HW2 7637   2.982   7.636   2.300 -0.5336  1.3534  0.8420
 2073SOL     OW 7638   4.781   5.876   1.013  0.6646 -0.2461  0.0731
 2073SOL    HW1 7639   4.818   5.947   1.065  2.3322  0.8117 -2.3293
 2073SOL    HW2 7640   4.813   5.796   1.055  0.5392  0.4760  1.5937
 2074SOL     OW 7641   3.303   3.217   7.224  0.1999  0.3385  0.5172
 2074SOL    HW1 7642   3.215   3.186   7.248  0.0698  0.5397  0.3069
 2074SOL    HW2 7643   3.343   3.244   7.306  0.5791 -1.0561  0.8155
 2075SOL     OW 7644   2.187   7.525   3.861  0.5164  0.0414 -0.6480
 2075SOL    HW1 7645   2.219   7.599   3.809  0.6733 -0.1082 -0.7655
 2075SOL    HW2 7646   2.118   7.563   3.916  1.7168  0.6440  0.5022
 2076SOL     OW 7647   4.737   4.286   8.012  0.0671 -0.4481 -0.5486
 2076SOL    HW1 7648   4.669   4.241   7.963 -0.2782  0.4190 -0.8754
 2076SOL    HW2 7649   4.794   4.324   7.945  0.2157 -0.1914 -0.2781
 2077SOL     OW 7650   2.939   7.544   7.165  0.4623 -0.2771 -0.3489
 2077SOL    HW1 7651   2.863   7.487   7.161  1.4057 -1.6967  0.7858
 2077SOL    HW2 7652   2.927   7.606   7.093 -1.3902 -0.8993 -0.6183
 2078SOL     OW 7653   7.477   2.598   1.559 -0.0926 -0.0646 -0.1661
 2078SOL    HW1 7654   7.433   2.514   1.566 -1.0001  0.3436 -0.7532
 2078SOL    HW2 7655   7.425   2.658   1.613  0.1278  0.2701 -0.3186
 2079SOL     OW 7656   6.569   2.417   7.907 -0.1129 -0.0811  0.1991
 2079SOL    HW1 7657   6.589   2.503   7.871  0.8620 -0.5443 -0.4030
 2079SOL    HW2 7658   6.557   2.361   7.831  1.5801 -0.9847  0.5314
 2080SOL     OW 7659   3.576   4.211   2.986  0.1039 -0.3360  0.0677
 2080SOL    HW1 7660   3.549   4.298   2.958  1.3477  0.5672  1.5783
 2080SOL    HW2 7661   3.537   4.200   3.073  0.1327 -1.2022 -0.0170
 2081SOL     OW 7662   0.298   2.448   1.586  0.2937 -0.3163  0.4568
 2081SOL    HW1 7663   0.280   2.405   1.670 -0.6158 -0.6039  0.1201
 2081SOL    HW2 7664   0.239   2.523   1.585 -0.1249 -0.6480 -0.1839
 2082SOL     OW 7665   8.052   0.423   2.855 -0.2509 -0.1601 -0.3582
 2082SOL    HW1 7666   7.964   0.392   2.832 -0.4020 -0.0377  0.0620
 2082SOL    HW2 7667   8.110   0.352   2.827 -0.4981 -0.3274 -0.4510
 2083SOL     OW 7668   0.812   0.462   1.638 -0.3746  0.0650 -0.4116
 2083SOL    HW1 7669   0.746   0.489   1.701 -0.2435  1.6137 -0.8936
 2083SOL    HW2 7670   0.862   0.393   1.683 -0.4302  0.9617  1.0953
 2084SOL     OW 7671   3.287   0.107   7.457 -0.2519  0.0697  0.5982
 2084SOL    HW1 7672   3.303   0.180   7.398 -1.2963 -1.0145 -1.0871
 2084SOL    HW2 7673   3.327   0.134   7.540  2.3591  1.1138 -0.9085
 2085SOL     OW 7674   2.695   4.451   5.685 -0.0946  0.1880 -0.0548
 2085SOL    HW1 7675   2.678   4.379   5.746 -2.9973 -0.3674 -1.3662
 2085SOL    HW2 7676   2.639   4.523   5.717  0.7045  0.9455 -0.3198
 2086SOL     OW 7677   5.246   2.768   4.624  0.1927  0.0510 -0.3352
 2086SOL    HW1 7678   5.160   2.804   4.603  0.2696  0.2563 -0.2998
 2086SOL    HW2 7679   5.228   2.678   4.650  0.3339 -0.9435 -3.3641
 2087SOL     OW 7680   1.983   7.688   2.314  0.4311  0.2888 -0.5600
 2087SOL    HW1 7681   1.970   7.636   2.394 -0.2977  2.0987  0.5703
 2087SOL    HW2 7682   1.897   7.688   2.272  0.4560  0.4907 -0.6110
 2088SOL     OW 7683   5.512   1.309   5.978 -0.2347  0.5340  0.2741
 2088SOL    HW1 7684   5.465   1.391   5.996  0.0537  0.6821  0.3470
 2088SOL    HW2 7685   5.484   1.250   6.048  0.4225  0.9205  0.8738
 2089SOL     OW 7686   5.040   5.681   2.067 -0.3452 -0.1101  0.1536
 2089SOL    HW1 7687   4.974   5.639   2.010 -1.6236 -3.1745  3.4540
 2089SOL    HW2 7688   5.116   5.624   2.061  0.6769  1.2856 -0.7171
 2090SOL     OW 7689   3.550   3.731   0.242  0.0433 -0.4851 -0.1781
 2090SOL    HW1 7690   3.566   3.640   0.265 -2.6595 -1.4242 -1.5589
 2090SOL    HW2 7691   3.465   3.751   0.281  0.5588  1.4482  0.0399
 2091SOL     OW 7692   7.657   1.671   5.620  0.0107 -0.0352 -0.0768
 2091SOL    HW1 7693   7.731   1.709   5.667 -0.9350  0.2476  1.2187
 2091SOL    HW2 7694   7.609   1.620   5.685 -0.2541 -1.2590 -1.1798
 2092SOL     OW 7695   0.811   6.365   1.237 -0.6567  0.4065  0.2454
 2092SOL    HW1 7696   0.854   6.439   1.280 -0.8288  1.7788 -1.8046
 2092SOL    HW2 7697   0.880   6.323   1.186 -1.1214  0.9424 -0.8658
 2093SOL     OW 7698   6.604   1.771   6.132 -0.1642  0.0547 -0.0810
 2093SOL    HW1 7699   6.631   1.820   6.210  0.4833 -1.3744  0.6358
 2093SOL    HW2 7700   6.523   1.727   6.157 -0.8838  0.9453 -0.8040
 2094SOL     OW 7701   2.019   5.542   1.586  0.0034 -0.0920 -0.0731
 2094SOL    HW1 7702   1.926   5.564   1.592  0.3919  1.3158  1.0992
 2094SOL    HW2 7703   2.062   5.625   1.567  1.2818 -0.2367  2.0064
 2095SOL     OW 7704   5.531   3.490   6.557  0.3622  0.4464 -0.7551
 2095SOL    HW1 7705   5.540   3.475   6.463 -0.8332  0.6942 -0.9180
 2095SOL    HW2 7706   5.445   3.531   6.567 -0.8122 -2.1107  0.7002
 2096SOL     OW 7707   5.951   7.898   6.111 -0.2241  0.6333  0.1374
 2096SOL    HW1 7708   5.902   7.964   6.061  0.6107  0.2506 -1.2328
 2096SOL    HW2 7709   5.976   7.832   6.046  1.8741  0.6716  0.8296
 2097SOL     OW 7710   1.363   1.948   2.205  0.1204 -0.2281 -0.1195
 2097SOL    HW1 7711   1.364   2.043   2.206 -0.9226 -0.2165  0.1194
 2097SOL    HW2 7712   1.453   1.923   2.229 -0.0493  0.6823  1.6059
 2098SOL     OW 7713   4.891   4.841   6.947  0.3522  0.5219 -0.1964
 2098SOL    HW1 7714   4.939   4.846   7.030  1.3412 -1.5853 -0.5679
 2098SOL    HW2 7715   4.948   4.884   6.884  0.6309  0.1669 -0.1879
 2099SOL     OW 7716   5.547   5.301   3.128  0.2059  0.7225 -0.3299
 2099SOL    HW1 7717   5.499   5.292   3.046 -2.0161  0.1534  0.9526
 2099SOL    HW2 7718   5.485   5.342   3.188  0.8145 -1.2067  1.7829
 2100SOL     OW 7719   1.204   1.820   2.391 -0.6143  0.4113  0.0270
 2100SOL    HW1 7720   1.132   1.809   2.330 -0.6788 -0.8533  0.3078
 2100SOL    HW2 7721   1.271   1.868   2.342 -0.8591 -0.1545 -0.8788
 2101SOL     OW 7722   3.588   2.318   5.851  0.1388  0.2854 -0.4468
 2101SOL    HW1 7723   3.528   2.244   5.861 -0.3719  0.9847  2.3576
 2101SOL    HW2 7724   3.647   2.311   5.925  2.4689  0.6448 -2.1733
 2102SOL     OW 7725   5.479   5.725   7.289 -0.1185  0.1553 -0.2484
 2102SOL    HW1 7726   5.389   5.732   7.255 -0.7379 -2.0003  0.7634
 2102SOL    HW2 7727   5.468   5.726   7.384  0.6447 -2.2552 -0.0651
 2103SOL     OW 7728   1.827   5.846   2.405 -0.0763 -0.4897  0.1991
 2103SOL    HW1 7729   1.895   5.903   2.440  0.7298 -0.8465 -0.7276
 2103SOL    HW2 7730   1.820   5.871   2.313 -1.7593  0.0614  0.4370
 2104SOL     OW 7731   7.825   1.015   2.742  0.2202 -0.3339 -0.0723
 2104SOL    HW1 7732   7.802   0.932   2.699 -2.0092 -0.8137  1.8065
 2104SOL    HW2 7733   7.883   0.990   2.813  1.4673  0.0677 -0.9207
 2105SOL     OW 7734   0.633   3.555   4.926  0.6702 -0.5229  0.1254
 2105SOL    HW1 7735   0.713   3.569   4.977  1.3861 -3.3997 -0.0450
 2105SOL    HW2 7736   0.664   3.519   4.843 -0.7713 -0.5328 -0.4337
 2106SOL     OW 7737   4.213   1.882   3.127 -0.4256 -0.1605  0.3558
 2106SOL    HW1 7738   4.290   1.933   3.150  0.1348 -0.7721 -0.1379
 2106SOL    HW2 7739   4.217   1.806   3.184  0.3156 -1.0816 -0.8713
 2107SOL     OW 7740   7.104   0.853   3.816 -0.1434  0.1360 -0.7292
 2107SOL    HW1 7741   7.052   0.778   3.847  1.1386 -0.3718  0.2717
 2107SOL    HW2 7742   7.191   0.817   3.800  0.8239  1.6179  0.8703
 2108SOL     OW 7743   1.233   3.508   6.574  0.2260  0.0403  0.1525
 2108SOL    HW1 7744   1.155   3.460   6.604  0.1199  0.1713  0.0848
 2108SOL    HW2 7745   1.302   3.478   6.633 -0.1012  0.7239  0.9067
 2109SOL     OW 7746   0.653   4.016   0.221  0.0191 -0.1190 -0.0925
 2109SOL    HW1 7747   0.605   4.022   0.303 -1.6047 -1.1566 -0.9058
 2109SOL    HW2 7748   0.588   4.038   0.153  1.2097  0.3473 -1.1258
 2110SOL     OW 7749   7.784   4.392   3.776 -0.1008 -0.8171  0.1712
 2110SOL    HW1 7750   7.729   4.395   3.697  1.3967  1.7089 -0.9188
 2110SOL    HW2 7751   7.737   4.444   3.840 -0.2575 -0.9719  0.1829
 2111SOL     OW 7752   1.827   0.177   2.981  0.1415  0.0915 -0.0853
 2111SOL    HW1 7753   1.922   0.189   2.981  0.5222 -2.2811 -1.2813
 2111SOL    HW2 7754   1.792   0.265   2.966  2.0404  1.2783  1.8306
 2112SOL     OW 7755   4.431   0.041   5.870 -0.3579  0.9317 -0.5603
 2112SOL    HW1 7756   4.511   0.092   5.866  0.2285  0.3078  1.6584
 2112SOL    HW2 7757   4.371   0.084   5.809  0.7012  3.1681 -0.0967
 2113SOL     OW 7758   0.313   0.776   5.051 -0.2624 -0.3111  0.2609
 2113SOL    HW1 7759   0.402   0.773   5.015 -0.5376 -1.3474 -0.3681
 2113SOL    HW2 7760   0.257   0.792   4.975 -0.7459 -1.2928  0.3929
 2114SOL     OW 7761   7.656   4.232   7.947  0.0257  0.0061 -0.0394
 2114SOL    HW1 7762   7.728   4.294   7.953  0.4187 -0.5567  1.4141
 2114SOL    HW2 7763   7.578   4.286   7.941  0.4383  0.6308  0.1680
 2115SOL     OW 7764   5.038   0.903   4.724 -0.0726  0.0339  0.3765
 2115SOL    HW1 7765   5.116   0.944   4.762  0.5452  0.4369 -1.2220
 2115SOL    HW2 7766   4.978   0.893   4.797 -0.2409  3.7402  0.9504
 2116SOL     OW 7767   0.530   5.498   1.267  0.2679 -0.6222  0.1628
 2116SOL    HW1 7768   0.555   5.545   1.346  0.1540 -0.5325  0.1470
 2116SOL    HW2 7769   0.593   5.526   1.201 -0.7510  0.7503 -0.2664
 2117SOL     OW 7770   1.504   4.717   4.955 -0.4594  0.3652  1.0068
 2117SOL    HW1 7771   1.504   4.765   4.872 -2.2706  1.1700  1.4139
 2117SOL    HW2 7772   1.595   4.692   4.969 -0.2508 -0.7441 -1.7455
 2118SOL     OW 7773   3.466   7.379   3.097  0.1020  0.2532 -0.2075
 2118SOL    HW1 7774   3.553   7.351   3.126 -0.6720 -0.4814  1.5449
 2118SOL    HW2 7775   3.406   7.330   3.153 -1.4317  1.2860 -0.9046
 2119SOL     OW 7776   6.511   4.365   0.916  0.6007  0.2328 -0.1001
 2119SOL    HW1 7777   6.493   4.273   0.939 -1.8799  0.5685 -0.4416
 2119SOL    HW2 7778   6.550   4.402   0.995  1.2627 -0.9881  0.1769
 2120SOL     OW 7779   5.251   1.084   7.121 -0.3669  0.2774 -0.1277
 2120SOL    HW1 7780   5.171   1.131   7.146  0.7997  1.1591  2.2660
 2120SOL    HW2 7781   5.236   1.059   7.029 -3.2185  0.6816  0.1247
 2121SOL     OW 7782   3.244   0.927   0.331  0.0079 -0.0189  0.4296
 2121SOL    HW1 7783   3.231   0.923   0.425 -1.2193 -1.4205  0.2376
 2121SOL    HW2 7784   3.280   0.841   0.308  1.6670  0.8014 -0.2237
 2122SOL     OW 7785   1.834   7.591   3.273 -0.4772 -0.2192 -0.4873
 2122SOL    HW1 7786   1.759   7.593   3.332 -0.7740  0.3145 -0.8661
 2122SOL    HW2 7787   1.822   7.511   3.222  0.2337 -1.1302  0.7294
 2123SOL     OW 7788   3.636   1.481   5.428  0.2257 -0.3276 -0.1827
 2123SOL    HW1 7789   3.585   1.562   5.431 -0.6251 -0.8747  1.2133
 2123SOL    HW2 7790   3.677   1.476   5.514  2.3692 -0.1032 -1.1338
 2124SOL     OW 7791   2.734   4.887   1.336 -0.3952 -0.1769  0.0694
 2124SOL    HW1 7792   2.712   4.835   1.258 -0.7752  1.1458 -0.7426
 2124SOL    HW2 7793   2.829   4.893   1.335 -0.4449  0.7544 -0.9480
 2125SOL     OW 7794   7.219   1.514   0.640 -0.5044 -0.0730  0.3436
 2125SOL    HW1 7795   7.176   1.477   0.717 -1.4494 -1.0922 -0.6360
 2125SOL    HW2 7796   7.186   1.604   0.636  1.1073  0.6587  2.2292
 2126SOL     OW 7797   0.729   4.881   7.661 -0.2642 -0.2722  0.3509
 2126SOL    HW1 7798   0.764   4.852   7.745  1.5069 -1.2811 -0.6919
 2126SOL    HW2 7799   0.683   4.963   7.681  0.8193 -0.0643  2.1669
 2127SOL     OW 7800   4.622   6.201   3.765 -0.3337  0.0670  0.8580
 2127SOL    HW1 7801   4.680   6.269   3.801 -0.7313  0.3441  0.9771
 2127SOL    HW2 7802   4.547   6.249   3.730 -0.2452 -0.2493  0.2111
 2128SOL     OW 7803   2.630   0.712   4.423 -0.3077 -0.3415 -0.2305
 2128SOL    HW1 7804   2.725   0.707   4.435 -0.0563  0.0657 -1.8530
 2128SOL    HW2 7805   2.616   0.693   4.331 -1.9192 -1.4995  0.2058
 2129SOL     OW 7806   0.908   1.749   6.751 -0.6660  0.1607 -0.0210
 2129SOL    HW1 7807   0.886   1.823   6.809  0.6779  1.0569 -0.6190
 2129SOL    HW2 7808   0.833   1.742   6.692 -2.2984 -1.0778  2.0623
 2130SOL     OW 7809   4.581   2.742   4.149  0.0979 -0.1115 -0.4358
 2130SOL    HW1 7810   4.543   2.655   4.157  0.8229 -0.5584 -1.5439
 2130SOL    HW2 7811   4.605   2.749   4.056 -2.5462  2.3621 -1.0775
 2131SOL     OW 7812   6.473   3.272   4.565 -0.4118 -0.2421  0.1091
 2131SOL    HW1 7813   6.427   3.302   4.487 -0.2528 -1.1628 -0.3545
 2131SOL    HW2 7814   6.556   3.238   4.532  1.3261  2.7212  1.0590
 2132SOL     OW 7815   2.253   5.177   0.498  0.5681 -0.1635 -0.1427
 2132SOL    HW1 7816   2.269   5.185   0.592  0.9706 -1.5942 -0.0594
 2132SOL    HW2 7817   2.281   5.260   0.461 -1.6705  1.3227  1.2316
 2133SOL     OW 7818   5.130   1.827   6.330  0.8051 -0.0971 -0.5756
 2133SOL    HW1 7819   5.146   1.795   6.241  0.6436  0.7011 -0.9025
 2133SOL    HW2 7820   5.084   1.910   6.317 -0.2763 -0.5372  0.2694
 2134SOL     OW 7821   0.996   6.867   0.238 -0.1390 -0.3446  0.4739
 2134SOL    HW1 7822   0.937   6.929   0.196  0.4506 -0.4202 -0.5034
 2134SOL    HW2 7823   0.965   6.860   0.328  1.1850  3.2358  1.3765
 2135SOL     OW 7824   1.861   3.160   1.207 -0.3165  0.1970 -0.5734
 2135SOL    HW1 7825   1.936   3.188   1.260  0.3475  0.1781 -1.4869
 2135SOL    HW2 7826   1.895   3.092   1.150 -0.3622  1.8683 -2.7481
 2136SOL     OW 7827   5.237   6.628   0.062 -0.3841 -0.0724 -0.1857
 2136SOL    HW1 7828   5.264   6.543   0.028  0.3214 -0.3091  0.8960
 2136SOL    HW2 7829   5.256   6.622   0.156  1.2960  1.8798 -0.3396
 2137SOL     OW 7830   5.075   1.411   2.173 -0.0159 -0.3316 -0.1706
 2137SOL    HW1 7831   5.095   1.421   2.266  1.4705 -1.2027 -0.3721
 2137SOL    HW2 7832   5.030   1.492   2.149  0.1798  0.1857  1.1511
 2138SOL     OW 7833   6.316   0.035   0.399  0.0065 -0.2976  0.2109
 2138SOL    HW1 7834   6.278   0.092   0.466 -0.5331 -1.3417  0.8160
 2138SOL    HW2 7835   6.362  -0.033   0.449  0.4499 -0.5249 -0.4974
 2139SOL     OW 7836   2.074   4.799   0.691 -0.2333  0.4584 -0.0177
 2139SOL    HW1 7837   2.061   4.704   0.691  1.0168  0.2674 -0.5280
 2139SOL    HW2 7838   2.168   4.810   0.704 -0.6159  1.6923  2.1006
 2140SOL     OW 7839   2.728   3.933   3.354 -0.0066 -0.1334  0.0586
 2140SOL    HW1 7840   2.748   3.841   3.334 -0.7250 -0.3453  0.2921
 2140SOL    HW2 7841   2.640   3.946   3.319  0.9850  1.1634 -2.1673
 2141SOL     OW 7842   6.294   3.121   5.555 -0.1823 -0.3536 -0.0639
 2141SOL    HW1 7843   6.240   3.113   5.634 -2.4020 -0.5068 -1.5091
 2141SOL    HW2 7844   6.307   3.215   5.545 -0.6542 -0.2738  0.0185
 2142SOL     OW 7845   0.354   2.488   5.585  0.0235 -1.3310  0.4082
 2142SOL    HW1 7846   0.428   2.541   5.616 -1.2260 -1.3180  3.8413
 2142SOL    HW2 7847   0.290   2.553   5.555 -0.5506 -0.9594  2.3188
 2143SOL     OW 7848   7.043   2.962   3.714  0.5606  0.4485  0.3382
 2143SOL    HW1 7849   7.094   3.043   3.716  1.1800  0.1295 -1.2699
 2143SOL    HW2 7850   7.109   2.893   3.711  0.0269 -0.0820  0.6456
 2144SOL     OW 7851   3.186   6.599   1.330 -0.6003 -0.3343  0.4457
 2144SOL    HW1 7852   3.103   6.589   1.282 -0.8366 -0.4184  0.8677
 2144SOL    HW2 7853   3.240   6.654   1.273 -0.2683 -1.7820 -0.6825
 2145SOL     OW 7854   3.837   2.120   6.379  0.2055  0.0827 -0.1642
 2145SOL    HW1 7855   3.785   2.198   6.402 -1.4069 -0.8530 -0.4948
 2145SOL    HW2 7856   3.789   2.047   6.417 -0.2304 -1.1016 -2.7587
 2146SOL     OW 7857   3.931   2.469   7.951  0.3705  0.4759 -0.0367
 2146SOL    HW1 7858   4.015   2.449   7.910  0.6980  1.2484  0.2412
 2146SOL    HW2 7859   3.953   2.525   8.025 -0.0520 -2.0177  2.1303
 2147SOL     OW 7860   4.183   7.370   4.566 -0.6948 -0.2549  0.1414
 2147SOL    HW1 7861   4.216   7.438   4.625 -1.5867  0.1589  0.1775
 2147SOL    HW2 7862   4.255   7.307   4.559 -0.2526  0.1482  0.9593
 2148SOL     OW 7863   3.042   5.848   2.189  0.1084 -0.6945 -0.4559
 2148SOL    HW1 7864   3.087   5.775   2.148  1.3559  0.1982 -0.7411
 2148SOL    HW2 7865   3.084   5.926   2.152  0.1036  0.1583  1.2419
 2149SOL     OW 7866   0.199   3.053   1.739  0.0080 -0.2220  0.3257
 2149SOL    HW1 7867   0.151   2.981   1.698 -0.8320 -0.3030  1.3866
 2149SOL    HW2 7868   0.133   3.098   1.791  1.1565 -0.5947  2.2016
 2150SOL     OW 7869   6.487   4.239   2.226  0.8620 -0.1540 -0.4773
 2150SOL    HW1 7870   6.531   4.305   2.279  1.6441 -0.9778 -0.0618
 2150SOL    HW2 7871   6.513   4.156   2.266  1.6246 -0.8226 -2.2449
 2151SOL     OW 7872   7.476   5.197   1.454  0.2287  0.4088  0.2040
 2151SOL    HW1 7873   7.499   5.269   1.396  0.6621  0.1016 -0.0122
 2151SOL    HW2 7874   7.417   5.236   1.518 -0.3576  0.7182 -0.5162
 2152SOL     OW 7875   3.907   6.919   5.995 -0.1710  0.4917  0.3047
 2152SOL    HW1 7876   3.891   6.998   6.047  0.7717  1.6369 -1.0375
 2152SOL    HW2 7877   3.999   6.898   6.011  0.1768  0.9450 -0.9354
 2153SOL     OW 7878   4.829   1.065   4.588  0.5922 -0.0474 -0.4792
 2153SOL    HW1 7879   4.901   1.002   4.596 -0.3901 -1.1529 -0.1976
 2153SOL    HW2 7880   4.789   1.046   4.503 -0.0752 -0.1860 -0.1337
 2154SOL     OW 7881   0.761   5.932   5.196  0.0535  0.0017 -0.0242
 2154SOL    HW1 7882   0.768   5.877   5.274  1.0291  0.3278  0.1361
 2154SOL    HW2 7883   0.672   5.918   5.164 -0.0358 -0.8979  0.5820
 2155SOL     OW 7884   1.742   0.438   2.938 -0.1995  0.3450  0.1323
 2155SOL    HW1 7885   1.742   0.523   2.982 -1.4243  1.2030 -1.4046
 2155SOL    HW2 7886   1.733   0.459   2.845 -2.2732 -1.4648 -0.1755
 2156SOL     OW 7887   2.514   6.272   5.911 -0.4985 -0.2128 -0.2695
 2156SOL    HW1 7888   2.418   6.274   5.909 -0.5672 -0.3444  1.5265
 2156SOL    HW2 7889   2.535   6.234   5.996  1.1543 -0.3958 -0.7455
 2157SOL     OW 7890   2.153   5.599   4.273  0.1139 -0.6686 -0.4590
 2157SOL    HW1 7891   2.137   5.685   4.312 -0.5929 -1.5958  1.4120
 2157SOL    HW2 7892   2.248   5.587   4.281 -0.0007 -0.7805  0.9165
 2158SOL     OW 7893   2.353   4.278   4.158 -0.2700  0.2733  0.5335
 2158SOL    HW1 7894   2.438   4.281   4.114  0.1189 -0.1959  1.2287
 2158SOL    HW2 7895   2.354   4.354   4.216 -2.2304  3.0604 -2.7329
 2159SOL     OW 7896   0.680   6.943   0.281 -0.3053  0.1788  0.2277
 2159SOL    HW1 7897   0.725   7.004   0.223  0.8755  0.4935  1.4170
 2159SOL    HW2 7898   0.654   6.871   0.224 -0.1829  0.9824 -0.8832
 2160SOL     OW 7899   4.391   0.555   0.574  0.1136 -0.3621  0.0915
 2160SOL    HW1 7900   4.398   0.562   0.670  0.1519 -1.8317  0.2259
 2160SOL    HW2 7901   4.406   0.462   0.557 -1.6675 -0.4464 -1.1981
 2161SOL     OW 7902   6.771   4.636   5.310 -0.1321  0.1949 -0.3583
 2161SOL    HW1 7903   6.766   4.722   5.353  0.9538  0.9537 -1.6548
 2161SOL    HW2 7904   6.686   4.627   5.267 -0.2833  0.5907 -0.1566
 2162SOL     OW 7905   7.106   4.561   4.835  0.1056  0.3240  0.0490
 2162SOL    HW1 7906   7.189   4.515   4.842  0.4660  0.9098 -0.2668
 2162SOL    HW2 7907   7.127   4.642   4.790 -0.4590  0.9648  0.9066
 2163SOL     OW 7908   5.807   0.017   0.050  0.2295  0.2932 -0.4763
 2163SOL    HW1 7909   5.884  -0.004  -0.003 -0.7779 -0.0729 -1.8640
 2163SOL    HW2 7910   5.834   0.092   0.104  1.9254 -0.6145 -0.0073
 2164SOL     OW 7911   1.177   5.593   5.571 -0.4380 -0.4784 -0.3689
 2164SOL    HW1 7912   1.234   5.629   5.639  0.6372 -0.7137 -1.1085
 2164SOL    HW2 7913   1.109   5.659   5.559 -0.1024 -0.0071  0.2666
 2165SOL     OW 7914   1.342   0.549   2.247  0.0397 -0.0127  0.5225
 2165SOL    HW1 7915   1.316   0.596   2.168  1.9910  1.1012  0.4928
 2165SOL    HW2 7916   1.403   0.482   2.216  1.7381  1.1756  1.1266
 2166SOL     OW 7917   1.454   3.197   0.052  0.0261 -0.1143  0.3376
 2166SOL    HW1 7918   1.396   3.141   0.102 -1.6759 -0.6033 -2.0144
 2166SOL    HW2 7919   1.528   3.141   0.029 -0.5521 -0.7212 -0.0671
 2167SOL     OW 7920   2.310   1.988   4.193  0.1958  0.2710 -0.6182
 2167SOL    HW1 7921   2.332   2.027   4.278 -2.0533 -1.8968  1.1046
 2167SOL    HW2 7922   2.394   1.966   4.154  1.2971  1.2546  1.0742
 2168SOL     OW 7923   7.414   7.906   0.243 -0.1183  0.5393 -0.0798
 2168SOL    HW1 7924   7.490   7.887   0.297  0.2249  0.5598 -0.5459
 2168SOL    HW2 7925   7.351   7.838   0.265 -0.4653  1.2577  1.2438
 2169SOL     OW 7926   6.008   1.302   7.248  0.5326 -0.1802  0.3106
 2169SOL    HW1 7927   6.002   1.273   7.157 -0.1866  1.5625 -0.2236
 2169SOL    HW2 7928   5.939   1.253   7.293 -0.3159  0.2929 -0.4598
 2170SOL     OW 7929   7.515   3.410   3.092 -0.2078  0.0976  0.3463
 2170SOL    HW1 7930   7.587   3.409   3.029 -0.0764 -2.4540  0.4045
 2170SOL    HW2 7931   7.556   3.380   3.174 -1.4145 -2.4523  0.1330
 2171SOL     OW 7932   3.794   0.993   4.295  0.9492  0.0625 -0.4488
 2171SOL    HW1 7933   3.878   1.035   4.275  1.4918  0.0403  1.6114
 2171SOL    HW2 7934   3.815   0.925   4.358 -0.6630  0.3450  0.4464
 2172SOL     OW 7935   1.890   3.605   1.077 -0.2005 -0.7834 -0.2310
 2172SOL    HW1 7936   1.893   3.534   1.013  0.9543 -0.9002 -0.0677
 2172SOL    HW2 7937   1.980   3.614   1.108 -0.7392 -0.8421  1.4964
 2173SOL     OW 7938   0.465   5.476   7.652  0.3092 -0.0483  0.1149
 2173SOL    HW1 7939   0.486   5.415   7.723 -0.8120 -0.5746  0.0182
 2173SOL    HW2 7940   0.483   5.427   7.572 -3.4800 -1.4750 -0.0392
 2174SOL     OW 7941   6.427   5.568   1.820  0.1245 -0.0306  0.2236
 2174SOL    HW1 7942   6.335   5.589   1.836  0.0013 -1.5982  2.0819
 2174SOL    HW2 7943   6.427   5.522   1.736 -0.3950  2.0645 -0.9787
 2175SOL     OW 7944   3.977   3.034   1.115 -0.2823  0.0562  0.0687
 2175SOL    HW1 7945   4.067   3.021   1.143 -0.1878  1.8114  0.6672
 2175SOL    HW2 7946   3.983   3.045   1.020  0.1216  0.0654  0.0939
 2176SOL     OW 7947   4.347   7.635   4.730  0.4311 -0.0757  0.9398
 2176SOL    HW1 7948   4.383   7.585   4.657 -0.5669 -1.1308  1.1319
 2176SOL    HW2 7949   4.408   7.620   4.802 -0.1390 -1.5375  1.1600
 2177SOL     OW 7950   6.774   1.584   2.118  0.4876 -0.3969 -0.3524
 2177SOL    HW1 7951   6.798   1.494   2.141 -0.0001 -0.5048 -0.2453
 2177SOL    HW2 7952   6.703   1.574   2.054  1.7194 -0.1016 -1.8110
 2178SOL     OW 7953   0.534   6.596   1.770  0.1903  0.0401  0.3635
 2178SOL    HW1 7954   0.442   6.569   1.777 -0.3738  1.7474 -0.0198
 2178SOL    HW2 7955   0.576   6.557   1.846 -0.6048 -1.6605 -0.0279
 2179SOL     OW 7956   4.436   7.948   3.676 -0.2299  0.2278 -0.0200
 2179SOL    HW1 7957   4.516   7.972   3.628 -0.1482 -1.1574 -0.6248
 2179SOL    HW2 7958   4.424   8.019   3.739  0.7027  1.1615 -0.8534
 2180SOL     OW 7959   2.750   6.154   3.998  0.7041  0.3554  0.1208
 2180SOL    HW1 7960   2.812   6.173   3.927 -0.0418  0.5908 -0.4798
 2180SOL    HW2 7961   2.725   6.063   3.983  0.3848  0.4696 -0.0479
 2181SOL     OW 7962   7.212   1.253   2.660  0.1498  0.2510  0.3091
 2181SOL    HW1 7963   7.200   1.196   2.736 -0.4919 -0.6471 -0.4396
 2181SOL    HW2 7964   7.281   1.212   2.609 -0.7305 -0.2304 -0.5405
 2182SOL     OW 7965   4.234   1.300   0.590 -0.1019 -0.2786 -0.6013
 2182SOL    HW1 7966   4.303   1.365   0.601  0.8838 -1.1190 -1.6051
 2182SOL    HW2 7967   4.201   1.314   0.502 -0.7371 -0.3479 -0.3796
 2183SOL     OW 7968   7.204   2.499   5.836  0.1510 -0.3654 -0.2026
 2183SOL    HW1 7969   7.140   2.553   5.881  1.5347  3.2145 -2.0527
 2183SOL    HW2 7970   7.273   2.484   5.901  0.2121  1.1125  0.1190
 2184SOL     OW 7971   7.551   1.106   6.376 -0.1247  0.1665  0.3146
 2184SOL    HW1 7972   7.638   1.147   6.370 -0.3410  0.6277  0.2581
 2184SOL    HW2 7973   7.567   1.019   6.412  0.7279 -0.9099 -2.4251
 2185SOL     OW 7974   5.989   2.441   4.614  0.1221  0.0504 -0.3108
 2185SOL    HW1 7975   6.025   2.474   4.531 -2.3987  2.9005 -0.4376
 2185SOL    HW2 7976   5.897   2.424   4.594 -0.5405  0.8080  1.8835
 2186SOL     OW 7977   7.037   3.664   2.112  0.0185  0.2397  0.1506
 2186SOL    HW1 7978   7.052   3.581   2.159  0.1633  0.8442  1.1999
 2186SOL    HW2 7979   6.994   3.637   2.031  0.3252 -0.8953  0.3426
 2187SOL     OW 7980   6.503   6.342   2.857  0.1471 -0.1499  0.1083
 2187SOL    HW1 7981   6.586   6.330   2.810 -0.6186  0.7474 -1.5527
 2187SOL    HW2 7982   6.505   6.433   2.886  0.8109 -0.8013  2.3583
 2188SOL     OW 7983   1.705   7.954   2.891 -0.8977  0.1514 -0.2778
 2188SOL    HW1 7984   1.714   8.048   2.901 -1.1013  0.0967  0.5215
 2188SOL    HW2 7985   1.618   7.934   2.925 -0.1093 -0.5668  1.4304
 2189SOL     OW 7986   7.967   0.587   4.921  0.2337 -0.2496 -0.0298
 2189SOL    HW1 7987   7.946   0.630   5.005 -0.0188  2.7825 -1.5188
 2189SOL    HW2 7988   8.061   0.570   4.926  0.1911 -0.2907  0.9319
 2190SOL     OW 7989   1.716   6.225   3.502 -0.5768  0.2958 -0.4803
 2190SOL    HW1 7990   1.753   6.139   3.479  0.2617  1.0652 -2.2229
 2190SOL    HW2 7991   1.731   6.233   3.596  2.6065 -0.0084 -0.8354
 2191SOL     OW 7992   0.849   0.055   6.923  0.2523  0.1255  0.9145
 2191SOL    HW1 7993   0.888   0.120   6.864  1.5779 -0.7553  0.7638
 2191SOL    HW2 7994   0.835   0.102   7.005  0.8564  0.7020  0.7031
 2192SOL     OW 7995   7.913   3.194   7.905 -0.0149  0.1521 -0.3490
 2192SOL    HW1 7996   7.943   3.130   7.969 -1.4102  0.9820  1.2069
 2192SOL    HW2 7997   7.958   3.275   7.929 -1.5164  0.7855  0.4401
 2193SOL     OW 7998   3.187   5.201   0.801  0.0862 -0.0110 -0.6130
 2193SOL    HW1 7999   3.133   5.135   0.845 -0.3312  1.4154  1.1384
 2193SOL    HW2 8000   3.268   5.155   0.780 -0.0826 -1.0379  0.8071
 2194SOL     OW 8001   7.828   2.040   7.485  0.0590  0.0960  0.0633
 2194SOL    HW1 8002   7.856   1.970   7.426 -0.2760  0.6511 -0.7739
 2194SOL    HW2 8003   7.774   2.098   7.430 -2.3114 -0.6386  1.4565
 2195SOL     OW 8004   0.834   3.344   5.434  0.2841 -0.5769  0.4795
 2195SOL    HW1 8005   0.829   3.248   5.443  0.7104 -0.6558 -0.0752
 2195SOL    HW2 8006   0.783   3.362   5.355  0.6065 -0.3910  0.3170
 2196SOL     OW 8007   2.281   0.396   6.611  0.2245  0.0289 -0.2957
 2196SOL    HW1 8008   2.281   0.471   6.670  0.3936 -0.2108  0.0119
 2196SOL    HW2 8009   2.227   0.330   6.656  1.4255 -0.6311  0.2071
 2197SOL     OW 8010   2.997   7.830   3.101  0.4037  0.6634 -0.3908
 2197SOL    HW1 8011   3.021   7.809   3.191 -1.8216  0.2472  0.1602
 2197SOL    HW2 8012   2.948   7.912   3.108 -1.5652 -0.4034 -0.8877
 2198SOL     OW 8013   6.739   6.999   0.713 -0.0494 -0.1358 -0.5525
 2198SOL    HW1 8014   6.800   7.068   0.738 -0.7037 -0.5022  2.4781
 2198SOL    HW2 8015   6.791   6.939   0.659  1.6861  0.5908  0.2411
 2199SOL     OW 8016   0.473   1.334   3.588  0.8934 -0.0388  0.0287
 2199SOL    HW1 8017   0.521   1.347   3.506  1.0850  2.0363  0.4169
 2199SOL    HW2 8018   0.541   1.314   3.653  0.7833 -1.2056 -0.1780
 2200SOL     OW 8019   5.033   1.518   4.157 -0.0241  0.2151  0.1159
 2200SOL    HW1 8020   4.975   1.442   4.145  0.0480  0.1710  0.0454
 2200SOL    HW2 8021   5.063   1.510   4.248  0.8057 -0.4284 -0.1972
 2201SOL     OW 8022   4.529   2.787   5.739  0.3304  0.3964  0.0184
 2201SOL    HW1 8023   4.436   2.766   5.746  0.6131 -0.7219  0.7622
 2201SOL    HW2 8024   4.531   2.879   5.714 -0.9694  0.5925  0.5447
 2202SOL     OW 8025   4.592   2.125   1.708 -0.6170  0.4231 -0.5363
 2202SOL    HW1 8026   4.605   2.216   1.682  0.2384  0.3414 -0.4194
 2202SOL    HW2 8027   4.642   2.115   1.789 -0.0590 -0.3475 -0.9621
 2203SOL     OW 8028   3.147   1.210   3.108 -0.2151  0.0518 -0.1312
 2203SOL    HW1 8029   3.235   1.238   3.133 -1.1870  2.3297  1.0298
 2203SOL    HW2 8030   3.158   1.168   3.022  2.2285 -1.5631  0.8697
 2204SOL     OW 8031   4.373   0.659   3.008  0.1944 -0.2330 -0.7582
 2204SOL    HW1 8032   4.357   0.705   3.090  2.8839  1.2406 -0.9480
 2204SOL    HW2 8033   4.363   0.566   3.030  0.9402  0.1223  1.2853
 2205SOL     OW 8034   4.092   3.800   2.857  0.1592  0.3197 -0.2920
 2205SOL    HW1 8035   4.099   3.742   2.781 -1.7831 -0.9521  0.4299
 2205SOL    HW2 8036   4.032   3.756   2.915  1.8553  1.0810  2.2054
 2206SOL     OW 8037   3.811   6.524   4.168  0.0729  0.1326  0.0382
 2206SOL    HW1 8038   3.898   6.511   4.131 -0.0032  1.7373 -0.7766
 2206SOL    HW2 8039   3.825   6.580   4.244 -0.0656 -1.1586  1.0627
 2207SOL     OW 8040   1.281   4.844   0.185 -0.0924  0.1841  0.2627
 2207SOL    HW1 8041   1.252   4.793   0.109  0.6352  1.2052 -0.7289
 2207SOL    HW2 8042   1.370   4.872   0.164  0.1435  0.4510  1.5181
 2208SOL     OW 8043   1.581   6.045   5.120 -0.1568 -0.2261  0.7830
 2208SOL    HW1 8044   1.618   6.133   5.127  1.2974 -0.8540  1.3692
 2208SOL    HW2 8045   1.649   5.994   5.077 -1.9243 -0.5677 -1.7967
 2209SOL     OW 8046   4.577   4.977   1.573 -0.3416 -0.3587  0.3303
 2209SOL    HW1 8047   4.573   4.892   1.617 -0.5453 -1.3494 -1.5141
 2209SOL    HW2 8048   4.545   4.959   1.485  2.7773  0.8995 -1.1868
 2210SOL     OW 8049   4.159   1.502   1.416 -0.4035 -0.2594  0.0574
 2210SOL    HW1 8050   4.144   1.528   1.326  0.8723  0.1890 -0.0498
 2210SOL    HW2 8051   4.091   1.547   1.466  0.5780  1.8062 -0.3661
 2211SOL     OW 8052   7.806   6.217   0.642 -0.2430  0.0510  0.2383
 2211SOL    HW1 8053   7.806   6.267   0.723  1.0432  1.6617 -0.6941
 2211SOL    HW2 8054   7.723   6.239   0.600  0.3852  1.6703 -0.2552
 2212SOL     OW 8055   2.516   1.242   1.601 -0.4948 -0.1872 -1.0260
 2212SOL    HW1 8056   2.441   1.201   1.557 -2.0559 -0.5208  1.7568
 2212SOL    HW2 8057   2.521   1.329   1.562 -1.3254 -0.6974 -2.3619
 2213SOL     OW 8058   1.317   6.152   1.254  0.3177  0.2692 -0.4392
 2213SOL    HW1 8059   1.244   6.180   1.309  0.3893 -1.5139  0.6525
 2213SOL    HW2 8060   1.277   6.134   1.169 -0.9653 -2.4234  0.6143
 2214SOL     OW 8061   1.523   5.770   1.149  0.1738 -0.1780 -0.8440
 2214SOL    HW1 8062   1.486   5.794   1.234 -0.6812  0.1834 -1.3032
 2214SOL    HW2 8063   1.613   5.801   1.152  0.2270 -0.4108  0.0295
 2215SOL     OW 8064   6.279   5.462   4.716 -0.5486  0.4231 -0.0347
 2215SOL    HW1 8065   6.311   5.376   4.742  2.9582  1.4398 -0.4250
 2215SOL    HW2 8066   6.205   5.444   4.659  0.2015 -2.3335 -0.2805
 2216SOL     OW 8067   0.039   1.577   6.612  0.5255  0.0079 -0.2002
 2216SOL    HW1 8068   0.065   1.660   6.572 -0.8914  0.8752  0.5837
 2216SOL    HW2 8069   0.006   1.524   6.540 -0.1504  0.7934 -0.4856
 2217SOL     OW 8070   2.056   7.930   3.128 -0.1373  0.1054  0.0915
 2217SOL    HW1 8071   2.028   7.947   3.038  0.3303  0.2715 -0.0233
 2217SOL    HW2 8072   2.148   7.953   3.130  0.3016 -1.4898  0.1654
 2218SOL     OW 8073   1.409   3.904   6.055  0.7530  0.4329 -0.0989
 2218SOL    HW1 8074   1.452   3.830   6.096  0.5351  0.8625  0.9423
 2218SOL    HW2 8075   1.480   3.954   6.014  1.1128  0.5359  0.6353
 2219SOL     OW 8076   7.668   7.759   0.011  0.1456  0.2089 -0.3111
 2219SOL    HW1 8077   7.649   7.718  -0.074  2.9976  1.5236 -1.7319
 2219SOL    HW2 8078   7.619   7.841   0.009 -2.0142 -0.9720  0.6199
 2220SOL     OW 8079   3.077   0.232   6.474 -0.3289  0.6540 -0.2691
 2220SOL    HW1 8080   3.062   0.153   6.422 -0.3907 -0.8232  1.8326
 2220SOL    HW2 8081   2.993   0.248   6.517 -0.3969  2.0783 -0.8795
 2221SOL     OW 8082   8.024   8.021   4.215 -0.7011  0.3295 -0.0696
 2221SOL    HW1 8083   7.974   8.095   4.181 -1.8494 -0.7017 -0.7122
 2221SOL    HW2 8084   8.108   8.026   4.170 -1.4161  0.2487 -1.4679
 2222SOL     OW 8085   4.676   1.704   2.901 -0.0895  0.2047  0.1214
 2222SOL    HW1 8086   4.692   1.631   2.961  1.5529  0.4920  0.0581
 2222SOL    HW2 8087   4.591   1.739   2.930 -0.8262 -1.5792  0.2706
 2223SOL     OW 8088   6.854   2.177   2.717 -0.0680  0.2297 -0.0603
 2223SOL    HW1 8089   6.797   2.228   2.661  1.2196  1.6351 -0.1517
 2223SOL    HW2 8090   6.890   2.240   2.779  0.3418 -0.8645  0.8593
 2224SOL     OW 8091   4.410   2.429   5.672  0.5586  1.0849  0.0519
 2224SOL    HW1 8092   4.363   2.509   5.650  0.4215  1.0981  0.3848
 2224SOL    HW2 8093   4.364   2.394   5.749  0.0464  0.2045 -0.6304
 2225SOL     OW 8094   0.094   5.015   7.813 -0.7393 -0.2521  0.7105
 2225SOL    HW1 8095   0.177   4.997   7.770 -1.1600 -0.5711  0.0062
 2225SOL    HW2 8096   0.028   4.994   7.747 -1.3628  0.5564  1.0571
 2226SOL     OW 8097   5.286   4.284   0.978  0.4360 -0.0105 -0.0263
 2226SOL    HW1 8098   5.313   4.374   0.959 -1.8154  0.3632 -1.7571
 2226SOL    HW2 8099   5.269   4.284   1.072  2.6793  0.6942  0.4504
 2227SOL     OW 8100   7.640   3.178   7.810  0.1777 -0.6527 -0.0570
 2227SOL    HW1 8101   7.624   3.187   7.904 -0.2772  0.1625 -0.2049
 2227SOL    HW2 8102   7.732   3.202   7.799  0.2418 -0.7883  0.1835
 2228SOL     OW 8103   4.547   3.612   1.768  0.1798  0.6944 -0.5064
 2228SOL    HW1 8104   4.496   3.531   1.779  0.4052  0.5299 -0.6428
 2228SOL    HW2 8105   4.484   3.682   1.782 -0.5282  0.5170 -2.4043
 2229SOL     OW 8106   0.101   2.718   3.047  0.5570 -0.8499 -0.0168
 2229SOL    HW1 8107   0.148   2.777   3.106 -2.7979  0.9660  1.0941
 2229SOL    HW2 8108   0.072   2.647   3.103  2.6933 -2.5470 -0.9174
 2230SOL     OW 8109   5.365   4.402   6.250 -0.2906  0.8474  0.3914
 2230SOL    HW1 8110   5.403   4.459   6.182  1.8389 -1.4621 -0.4980
 2230SOL    HW2 8111   5.365   4.315   6.211  0.5411 -0.4906  3.1451
 2231SOL     OW 8112   0.522   2.808   8.058  0.0745  0.1521  0.4654
 2231SOL    HW1 8113   0.508   2.903   8.063 -1.2240 -0.0090  0.2885
 2231SOL    HW2 8114   0.614   2.799   8.035  0.1384  1.3794  0.1491
 2232SOL     OW 8115   6.242   1.304   7.389 -0.0907  0.2551  0.1970
 2232SOL    HW1 8116   6.169   1.288   7.329  1.9529 -2.7536 -1.8487
 2232SOL    HW2 8117   6.234   1.234   7.455  0.5039  0.3644  0.3862
 2233SOL     OW 8118   0.751   6.021   1.227 -0.0388  0.4268 -0.3049
 2233SOL    HW1 8119   0.808   5.979   1.163 -0.5181 -1.4450  0.4205
 2233SOL    HW2 8120   0.807   6.039   1.302 -0.4789 -2.2644  0.7776
 2234SOL     OW 8121   3.482   3.366   3.866 -0.7909 -0.0450 -0.4383
 2234SOL    HW1 8122   3.508   3.448   3.823  1.3655  0.7440  2.1117
 2234SOL    HW2 8123   3.531   3.298   3.819  1.5657  0.8035  0.6542
 2235SOL     OW 8124   5.947   5.785   4.693  0.1743  0.2252 -0.5977
 2235SOL    HW1 8125   5.906   5.842   4.629 -1.1496 -1.2398 -1.1280
 2235SOL    HW2 8126   6.039   5.810   4.693 -0.1595  1.5404 -1.6575
 2236SOL     OW 8127   5.023   3.007   2.224  0.1408  0.4290 -0.2588
 2236SOL    HW1 8128   5.038   2.933   2.282  0.1286  0.7245  0.1261
 2236SOL    HW2 8129   4.963   2.974   2.157  0.0371  0.1309 -0.0201
 2237SOL     OW 8130   7.181   0.052   2.321  0.4539 -0.3646 -0.2625
 2237SOL    HW1 8131   7.090   0.070   2.296  0.9831  1.6024 -0.9034
 2237SOL    HW2 8132   7.173   0.010   2.407 -1.0546  0.4133  0.0282
 2238SOL     OW 8133   0.390   3.753   6.901  0.1237  0.6523 -0.4202
 2238SOL    HW1 8134   0.336   3.755   6.822 -0.3696 -1.2204 -0.1809
 2238SOL    HW2 8135   0.430   3.666   6.900 -2.6129 -0.8931  3.0863
 2239SOL     OW 8136   7.801   4.393   1.404  0.0213 -0.0551 -0.1186
 2239SOL    HW1 8137   7.865   4.382   1.334  0.2544  0.3606  0.0219
 2239SOL    HW2 8138   7.717   4.402   1.358 -0.1078 -1.7043 -0.2543
 2240SOL     OW 8139   1.671   3.216   5.074 -0.0122  0.6422 -0.1680
 2240SOL    HW1 8140   1.671   3.252   5.162 -2.1096  1.2053 -0.3487
 2240SOL    HW2 8141   1.676   3.121   5.087  1.2672  0.7634  0.4529
 2241SOL     OW 8142   7.564   0.799   7.032  0.1861  0.1254  0.4261
 2241SOL    HW1 8143   7.646   0.849   7.032  0.0645  0.4848 -2.5639
 2241SOL    HW2 8144   7.506   0.848   7.090  1.6906  0.4626  1.7381
 2242SOL     OW 8145   5.204   2.408   4.458  0.0425  0.8600  0.2678
 2242SOL    HW1 8146   5.259   2.341   4.499  0.3465  0.5053 -0.6809
 2242SOL    HW2 8147   5.122   2.363   4.437  0.5675  0.5167 -1.1652
 2243SOL     OW 8148   3.097   3.411   1.919 -0.1427  0.2835  0.3026
 2243SOL    HW1 8149   3.149   3.333   1.937  0.8965  0.5091 -1.4902
 2243SOL    HW2 8150   3.013   3.377   1.889 -1.3426 -0.0824  3.6185
 2244SOL     OW 8151   0.823   3.532   2.844  0.2490  0.6848  0.5199
 2244SOL    HW1 8152   0.813   3.584   2.765 -2.8170  1.0037  0.9804
 2244SOL    HW2 8153   0.848   3.595   2.911 -0.9665  1.1612  0.5530
 2245SOL     OW 8154   4.323   1.016   4.519  0.0846  0.2476  0.4854
 2245SOL    HW1 8155   4.229   1.007   4.537 -0.0302 -0.0057 -0.2049
 2245SOL    HW2 8156   4.364   1.016   4.606 -0.6716  1.9396  0.8928
 2246SOL     OW 8157   3.868   2.060   4.028 -0.2906 -0.1475 -0.6040
 2246SOL    HW1 8158   3.854   2.110   4.108 -1.8652 -0.4709 -0.6496
 2246SOL    HW2 8159   3.866   2.125   3.957  0.0152 -0.0000 -0.4797
 2247SOL     OW 8160   0.577   3.659   0.617  0.0698  0.3178 -0.1300
 2247SOL    HW1 8161   0.536   3.746   0.615 -0.4352  0.2854  2.9231
 2247SOL    HW2 8162   0.504   3.598   0.612  0.0997  0.1820  0.7902
 2248SOL     OW 8163   2.720   2.407   6.166 -0.5326 -0.4492  0.7416
 2248SOL    HW1 8164   2.669   2.328   6.149  0.0444 -0.7115  0.1384
 2248SOL    HW2 8165   2.702   2.464   6.091  0.5710 -0.8328  0.1513
 2249SOL     OW 8166   7.049   2.808   3.092 -0.3532  0.1690 -0.3493
 2249SOL    HW1 8167   7.137   2.789   3.058 -0.1087  1.1470 -0.2775
 2249SOL    HW2 8168   7.042   2.903   3.090 -1.2494  0.1223  0.0731
 2250SOL     OW 8169   4.009   0.505   0.645 -0.1880 -0.1962 -0.6587
 2250SOL    HW1 8170   3.980   0.462   0.564 -0.3839 -0.5241 -0.4170
 2250SOL    HW2 8171   3.934   0.497   0.704 -0.0316  0.0156 -0.4320
 2251SOL     OW 8172   2.101   7.799   6.826 -0.3568 -0.9038 -0.1431
 2251SOL    HW1 8173   2.046   7.843   6.761  1.2251  0.1690 -0.8198
 2251SOL    HW2 8174   2.060   7.818   6.910 -0.2225  1.1798 -0.4998
 2252SOL     OW 8175   6.867   2.368   7.682 -0.0725 -0.1843  0.0189
 2252SOL    HW1 8176   6.821   2.319   7.614 -0.3210  0.5073 -0.3191
 2252SOL    HW2 8177   6.960   2.353   7.663 -0.0407  2.0303 -2.0514
 2253SOL     OW 8178   2.475   7.639   3.547 -0.4599 -0.2306 -0.2936
 2253SOL    HW1 8179   2.563   7.614   3.518  0.1264 -0.7518  1.7705
 2253SOL    HW2 8180   2.473   7.734   3.537  1.3290  0.1237  2.0319
 2254SOL     OW 8181   0.839   7.096   0.138 -0.3951  0.3170 -0.1056
 2254SOL    HW1 8182   0.795   7.167   0.092  1.3769  1.2415 -0.4779
 2254SOL    HW2 8183   0.914   7.138   0.181  0.2310 -1.1869  0.3508
 2255SOL     OW 8184   3.991   1.502   5.547  0.0687 -0.1621  0.3338
 2255SOL    HW1 8185   3.969   1.590   5.577  1.5209  0.0030  0.9938
 2255SOL    HW2 8186   4.070   1.479   5.595 -0.2233 -1.8027  0.1037
 2256SOL     OW 8187   7.018   5.608   7.767  0.7945 -0.0904 -0.8168
 2256SOL    HW1 8188   6.968   5.614   7.686 -0.7927  0.9472  0.1736
 2256SOL    HW2 8189   7.063   5.693   7.774 -0.5725  0.5866  0.2601
 2257SOL     OW 8190   0.742   3.910   7.037 -0.8283 -0.3374 -0.1369
 2257SOL    HW1 8191   0.795   3.836   7.068 -1.7208 -1.5428 -1.3623
 2257SOL    HW2 8192   0.666   3.911   7.096 -0.9060 -0.5159 -0.2341
 2258SOL     OW 8193   2.139   5.971   2.366 -0.0620 -0.0884 -0.0377
 2258SOL    HW1 8194   2.194   5.896   2.388  1.0875  0.6324 -0.3630
 2258SOL    HW2 8195   2.174   6.003   2.283 -1.5195 -0.1059 -0.6924
 2259SOL     OW 8196   0.715   1.899   2.384 -0.3068  0.5199  0.0783
 2259SOL    HW1 8197   0.723   1.837   2.457  0.4798  0.3665 -0.1239
 2259SOL    HW2 8198   0.724   1.985   2.425  2.3478  0.3837 -0.0517
 2260SOL     OW 8199   7.425   3.149   4.460  0.4724  0.4206  0.1189
 2260SOL    HW1 8200   7.509   3.176   4.498  1.3691  1.7551 -2.5200
 2260SOL    HW2 8201   7.364   3.149   4.534  2.2917  1.7128  1.7280
 2261SOL     OW 8202   3.672   5.866   5.116 -0.2689 -0.0007  0.3707
 2261SOL    HW1 8203   3.604   5.933   5.127 -1.0469 -0.3600 -1.8609
 2261SOL    HW2 8204   3.696   5.871   5.024  0.4001 -2.1205  0.3876
 2262SOL     OW 8205   1.090   2.944   0.602  0.4791 -0.6169  0.1341
 2262SOL    HW1 8206   1.142   2.865   0.619  0.7859 -0.3171  0.6090
 2262SOL    HW2 8207   1.154   3.015   0.602  0.1687 -0.3325 -0.0368
 2263SOL     OW 8208   6.319   4.929   0.694  0.3098  0.2927  0.0138
 2263SOL    HW1 8209   6.414   4.935   0.686  0.2575  0.7454 -0.3071
 2263SOL    HW2 8210   6.296   4.996   0.759  0.2354  0.0238  0.2637
 2264SOL     OW 8211   5.904   4.667   7.655  0.1855  0.2249 -0.4978
 2264SOL    HW1 8212   5.987   4.671   7.606 -0.0071  0.0125 -0.8475
 2264SOL    HW2 8213   5.842   4.716   7.601 -0.0630 -0.1318 -0.5410
 2265SOL     OW 8214   2.586   2.545   6.391 -0.0002  0.0623 -0.6509
 2265SOL    HW1 8215   2.506   2.520   6.438 -0.3295 -0.5656 -1.5265
 2265SOL    HW2 8216   2.632   2.462   6.376 -0.1383  0.1871 -1.8549
 2266SOL     OW 8217   1.204   2.981   3.606 -0.1960  0.1809  0.1513
 2266SOL    HW1 8218   1.109   2.973   3.612 -0.1879 -1.3832 -1.0062
 2266SOL    HW2 8219   1.221   3.075   3.614 -1.9914  0.6789 -1.1807
 2267SOL     OW 8220   2.272   5.232   1.878  0.1755 -1.0234  0.1637
 2267SOL    HW1 8221   2.328   5.274   1.813 -0.3343  1.4791  1.2135
 2267SOL    HW2 8222   2.189   5.279   1.873 -0.7424 -2.4918  0.8710
 2268SOL     OW 8223   7.929   3.874   5.269 -0.0516 -0.2270  0.3386
 2268SOL    HW1 8224   8.002   3.920   5.228  1.6436 -2.3519  0.7960
 2268SOL    HW2 8225   7.929   3.787   5.229 -2.0294 -0.4695  0.7293
 2269SOL     OW 8226   6.049   0.508   0.032 -0.3317 -0.1657  0.4802
 2269SOL    HW1 8227   6.123   0.469   0.079 -0.3631 -0.7644  0.0529
 2269SOL    HW2 8228   6.048   0.599   0.060  0.6369 -0.1201  0.4319
 2270SOL     OW 8229   3.434   3.821   3.998  0.0215 -0.7330  0.1456
 2270SOL    HW1 8230   3.458   3.750   3.938  1.0046 -1.1583  1.0161
 2270SOL    HW2 8231   3.501   3.888   3.985  1.4042 -1.6526  2.1313
 2271SOL     OW 8232   5.610   0.661   5.113 -0.1543  0.2140 -0.2717
 2271SOL    HW1 8233   5.559   0.742   5.115  1.6547  1.4777 -1.9144
 2271SOL    HW2 8234   5.660   0.666   5.032  1.1169 -1.8771  0.3037
 2272SOL     OW 8235   4.051   1.383   5.289  0.2539  0.8725  0.1715
 2272SOL    HW1 8236   4.047   1.405   5.382  0.3278 -1.2747  0.7511
 2272SOL    HW2 8237   3.964   1.404   5.255 -0.1288  0.6524  0.9947
 2273SOL     OW 8238   4.806   4.934   6.523  0.2492  0.0561 -0.4960
 2273SOL    HW1 8239   4.837   4.849   6.493  0.7464 -0.3698  1.1026
 2273SOL    HW2 8240   4.861   4.954   6.600 -2.1465  0.1569  1.3122
 2274SOL     OW 8241   5.603   2.468   3.659 -0.0599 -0.0279 -0.2536
 2274SOL    HW1 8242   5.677   2.520   3.626  0.3699 -1.9428 -2.6119
 2274SOL    HW2 8243   5.617   2.463   3.753  1.5580  1.5569 -0.3650
 2275SOL     OW 8244   6.571   1.909   4.184 -0.2010  0.4137  0.0534
 2275SOL    HW1 8245   6.525   1.865   4.112 -0.0985  1.9005 -0.9678
 2275SOL    HW2 8246   6.664   1.896   4.165 -0.0871 -2.0856  1.8029
 2276SOL     OW 8247   1.577   1.848   7.146 -0.6906  0.3645 -0.2296
 2276SOL    HW1 8248   1.582   1.943   7.131  1.1020  0.4947  0.8715
 2276SOL    HW2 8249   1.499   1.820   7.097 -1.4450  2.4416 -0.3213
 2277SOL     OW 8250   6.137   4.938   3.376  0.2429 -0.4459  0.3249
 2277SOL    HW1 8251   6.190   4.920   3.454 -0.1277  2.2060  1.2821
 2277SOL    HW2 8252   6.156   5.029   3.354  0.4503 -1.1455 -2.8562
 2278SOL     OW 8253   4.997   5.809   6.071 -0.0474  0.2953  0.4752
 2278SOL    HW1 8254   4.971   5.831   6.161 -1.4060  1.7635 -0.2302
 2278SOL    HW2 8255   5.089   5.833   6.067 -0.6662  2.9993  0.6976
 2279SOL     OW 8256   6.103   3.350   0.262 -0.1986  0.4026 -0.1457
 2279SOL    HW1 8257   6.035   3.353   0.330  0.2700  2.4295  0.3273
 2279SOL    HW2 8258   6.176   3.303   0.303 -0.6581 -0.1719  0.0130
 2280SOL     OW 8259   3.798   7.805   0.655 -0.2924 -0.3492 -0.3072
 2280SOL    HW1 8260   3.741   7.796   0.732  0.0787  0.4103  0.0593
 2280SOL    HW2 8261   3.765   7.882   0.609  0.8585  0.5169  0.2790
 2281SOL     OW 8262   2.380   5.696   0.877  0.0957 -0.4121 -0.4325
 2281SOL    HW1 8263   2.430   5.617   0.860  1.2305  0.4646 -1.3186
 2281SOL    HW2 8264   2.344   5.684   0.965  0.9438 -1.5380 -0.2268
 2282SOL     OW 8265   7.495   1.698   1.033 -0.7021 -0.1606  0.3458
 2282SOL    HW1 8266   7.573   1.709   1.087 -0.6149 -0.5694  0.3100
 2282SOL    HW2 8267   7.491   1.777   0.980 -1.7001  1.0066  2.0680
 2283SOL     OW 8268   7.491   2.540   7.831 -0.0792 -0.0348  0.0957
 2283SOL    HW1 8269   7.507   2.601   7.758  0.5341  1.5357  1.4756
 2283SOL    HW2 8270   7.408   2.569   7.869 -0.4127 -0.8649  0.0164
 2284SOL     OW 8271   2.902   3.609   2.802  0.4199  0.5568  0.2864
 2284SOL    HW1 8272   2.884   3.579   2.891 -0.5497  1.5565  0.4508
 2284SOL    HW2 8273   2.830   3.669   2.782  0.1160 -0.3445 -1.5307
 2285SOL     OW 8274   2.465   2.976   7.514 -0.4503  0.2706  0.1827
 2285SOL    HW1 8275   2.462   2.915   7.440 -0.0787 -3.0219  2.6511
 2285SOL    HW2 8276   2.554   2.969   7.547 -0.7166  1.3691  1.2030
 2286SOL     OW 8277   5.495   6.173   8.012  0.3232  0.2434 -0.1965
 2286SOL    HW1 8278   5.590   6.184   8.002  0.5429 -1.3623 -0.1414
 2286SOL    HW2 8279   5.463   6.158   7.923 -0.3802  3.7927 -0.6688
 2287SOL     OW 8280   4.282   0.989   7.337  0.2213  0.2967 -0.0170
 2287SOL    HW1 8281   4.210   0.926   7.331 -0.8942  1.6014 -0.7204
 2287SOL    HW2 8282   4.341   0.951   7.403 -1.3281 -0.5859  0.9355
 2288SOL     OW 8283   2.002   6.718   0.762  0.2292  0.0089 -0.2035
 2288SOL    HW1 8284   2.063   6.697   0.832  0.3472 -3.0883 -1.0599
 2288SOL    HW2 8285   1.918   6.686   0.794  0.2115 -1.0635 -1.2575
 2289SOL     OW 8286   7.065   7.290   1.297  0.0278  0.3525 -0.7195
 2289SOL    HW1 8287   7.094   7.200   1.284 -0.3838  0.0512  0.3219
 2289SOL    HW2 8288   7.007   7.286   1.374  0.3069  1.5627 -0.4200
 2290SOL     OW 8289   7.579   5.234   4.740  0.6219 -0.5458 -0.9595
 2290SOL    HW1 8290   7.495   5.190   4.734 -0.0183  0.4135  0.3141
 2290SOL    HW2 8291   7.607   5.246   4.650 -0.2059 -1.6043 -1.3786
 2291SOL     OW 8292   0.636   5.292   7.848  0.6819 -0.1824 -0.5616
 2291SOL    HW1 8293   0.608   5.243   7.926  0.8583  0.4829 -0.0718
 2291SOL    HW2 8294   0.673   5.373   7.883  0.8402  0.0867 -1.3404
 2292SOL     OW 8295   0.477   3.188   7.210 -0.1969  0.0172 -0.1971
 2292SOL    HW1 8296   0.458   3.281   7.210 -0.6950  0.0056 -2.9136
 2292SOL    HW2 8297   0.561   3.180   7.164  0.3310 -0.8171  0.8642
 2293SOL     OW 8298   4.063   8.028   2.266  0.8807 -0.2935 -0.2267
 2293SOL    HW1 8299   4.018   8.051   2.185  0.3077  0.3358  0.2583
 2293SOL    HW2 8300   4.135   8.091   2.274 -0.1153  0.7798  0.6196
 2294SOL     OW 8301   5.668   4.452   5.732  0.1483  0.4216 -0.2620
 2294SOL    HW1 8302   5.693   4.495   5.813 -0.5814 -1.0201  0.7648
 2294SOL    HW2 8303   5.728   4.487   5.666  0.8828  1.4582  0.9299
 2295SOL     OW 8304   1.008   6.687   1.839 -0.1983 -0.2311 -0.2357
 2295SOL    HW1 8305   0.961   6.661   1.919 -0.7402  3.0431  0.7062
 2295SOL    HW2 8306   0.938   6.711   1.778  0.1973  0.9217 -0.2598
 2296SOL     OW 8307   5.949   6.252   2.674 -0.3577 -0.0412  0.2324
 2296SOL    HW1 8308   6.005   6.181   2.705 -1.9387 -1.3785  0.1343
 2296SOL    HW2 8309   5.966   6.324   2.735  0.1030 -1.0342  1.3124
 2297SOL     OW 8310   1.236   5.364   5.423 -0.3621  0.1124  0.0492
 2297SOL    HW1 8311   1.332   5.369   5.432 -0.3138 -0.7851  0.1309
 2297SOL    HW2 8312   1.205   5.448   5.456  0.5388  1.3685 -2.0847
 2298SOL     OW 8313   1.485   1.623   1.300  0.5140 -0.0369 -0.1986
 2298SOL    HW1 8314   1.390   1.631   1.309  0.4414 -0.5442 -0.5026
 2298SOL    HW2 8315   1.517   1.622   1.391  0.2790  0.6444 -0.1009
 2299SOL     OW 8316   6.513   3.623   3.669  0.0807 -0.1738  0.5749
 2299SOL    HW1 8317   6.458   3.581   3.735  0.1818  0.0723  0.8163
 2299SOL    HW2 8318   6.602   3.596   3.693  0.0364 -0.8862 -0.0398
 2300SOL     OW 8319   5.343   1.238   6.201  0.3689 -0.0964 -0.6035
 2300SOL    HW1 8320   5.281   1.297   6.245 -0.0465  0.0310 -1.3435
 2300SOL    HW2 8321   5.416   1.230   6.263  0.8540  1.9100 -0.8237
 2301SOL     OW 8322   7.251   6.460   1.015 -0.0570 -0.3804 -0.1592
 2301SOL    HW1 8323   7.277   6.419   1.098 -2.8278  0.6752  1.3483
 2301SOL    HW2 8324   7.327   6.513   0.990  0.6782 -0.3533  1.9519
 2302SOL     OW 8325   1.763   4.385   4.869 -0.1263 -0.0968 -0.4922
 2302SOL    HW1 8326   1.787   4.296   4.898  0.9376 -0.5540 -2.5874
 2302SOL    HW2 8327   1.738   4.374   4.777 -1.6688  1.5420 -0.3203
 2303SOL     OW 8328   3.198   5.965   5.239  0.1506  0.1892 -0.4670
 2303SOL    HW1 8329   3.241   6.041   5.278  0.8906  0.6851 -2.1562
 2303SOL    HW2 8330   3.123   5.948   5.296  0.9860  1.0552  0.9535
 2304SOL     OW 8331   8.026   1.177   5.404  0.2167 -0.0528 -0.0912
 2304SOL    HW1 8332   8.084   1.113   5.444 -1.0971 -1.1595  0.1233
 2304SOL    HW2 8333   8.084   1.242   5.365  1.5554  0.1130  2.0709
 2305SOL     OW 8334   3.770   7.381   2.966 -0.1099  0.6371  0.1248
 2305SOL    HW1 8335   3.781   7.339   2.880 -1.4133  2.8164 -1.1844
 2305SOL    HW2 8336   3.789   7.311   3.029 -1.4424 -1.7062 -1.9093
 2306SOL     OW 8337   4.341   4.414   2.585 -0.1114 -0.0969 -0.2871
 2306SOL    HW1 8338   4.270   4.474   2.605 -0.0935 -0.6873  1.9390
 2306SOL    HW2 8339   4.297   4.331   2.563 -0.1354 -0.0044 -0.5768
 2307SOL     OW 8340   6.900   4.587   6.621 -0.3700 -0.3417  0.3062
 2307SOL    HW1 8341   6.827   4.647   6.630  0.6977  1.2873 -1.0622
 2307SOL    HW2 8342   6.956   4.606   6.696 -0.1606  0.2385  0.0159
 2308SOL     OW 8343   7.742   2.015   3.739  0.2568 -0.4398  0.3010
 2308SOL    HW1 8344   7.760   1.999   3.832  0.4216 -1.1373  0.1497
 2308SOL    HW2 8345   7.818   1.979   3.693 -0.0379 -0.5093 -0.1348
 2309SOL     OW 8346   6.327   1.587   0.002  0.4300  0.7528 -0.0683
 2309SOL    HW1 8347   6.253   1.581  -0.058  0.3145  0.1483  0.1261
 2309SOL    HW2 8348   6.384   1.514  -0.023 -0.1672 -0.2147  1.2825
 2310SOL     OW 8349   3.415   6.241   1.889 -0.4572 -0.1538  1.2010
 2310SOL    HW1 8350   3.458   6.227   1.974 -1.8342 -1.4660  1.7381
 2310SOL    HW2 8351   3.385   6.332   1.893  0.0322 -0.0108  1.8734
 2311SOL     OW 8352   3.220   4.158   4.764  0.1547 -0.1543 -0.4202
 2311SOL    HW1 8353   3.210   4.253   4.759  0.8498 -0.0357  0.2049
 2311SOL    HW2 8354   3.131   4.124   4.753  0.0285  0.5108 -1.6508
 2312SOL     OW 8355   7.366   4.221   2.986  0.1323  0.2190  0.0890
 2312SOL    HW1 8356   7.289   4.272   3.014 -2.2865 -3.4814  0.9066
 2312SOL    HW2 8357   7.335   4.170   2.912  2.3509 -0.2280 -0.6006
 2313SOL     OW 8358   5.928   2.880   1.695 -0.3970  0.1964 -0.4759
 2313SOL    HW1 8359   5.929   2.966   1.653 -0.5950  0.0662 -0.7467
 2313SOL    HW2 8360   5.862   2.830   1.648 -2.4556  0.8456  1.5518
 2314SOL     OW 8361   2.140   4.497   7.203 -0.1524 -0.0766  0.4166
 2314SOL    HW1 8362   2.086   4.567   7.166 -0.0433  0.9595  2.1554
 2314SOL    HW2 8363   2.225   4.507   7.160 -0.6073 -0.2097 -0.5502
 2315SOL     OW 8364   7.617   0.262   4.536  0.5542  0.0564 -0.1893
 2315SOL    HW1 8365   7.565   0.182   4.540 -1.6819  1.3850 -0.9017
 2315SOL    HW2 8366   7.686   0.249   4.602  1.0929 -2.9276 -1.1833
 2316SOL     OW 8367   2.912   2.708   0.717  0.0563 -0.1449  0.2663
 2316SOL    HW1 8368   2.851   2.661   0.660  1.1855 -0.5561 -0.6344
 2316SOL    HW2 8369   2.956   2.639   0.767  1.5035 -0.0712 -0.8448
 2317SOL     OW 8370   1.333   6.219   2.673 -0.0337  0.2688 -0.5338
 2317SOL    HW1 8371   1.341   6.216   2.768 -0.1890 -1.3926 -0.5472
 2317SOL    HW2 8372   1.252   6.267   2.658  0.2418  0.9634  0.1510
 2318SOL     OW 8373   3.639   6.501   1.442  0.0361 -0.9846  0.0346
 2318SOL    HW1 8374   3.548   6.502   1.472  0.0959 -0.3704  0.2051
 2318SOL    HW2 8375   3.678   6.426   1.485 -0.8602 -2.3752 -1.4533
 2319SOL     OW 8376   3.887   5.041   1.407 -0.0065  0.3911 -0.1911
 2319SOL    HW1 8377   3.820   4.976   1.428  0.3346 -0.2105 -0.9557
 2319SOL    HW2 8378   3.921   5.069   1.492 -2.3463  1.9295  0.3377
 2320SOL     OW 8379   2.948   0.719   5.062  0.5768  0.2461 -0.3295
 2320SOL    HW1 8380   2.894   0.760   4.995 -1.9422 -1.0080  0.8160
 2320SOL    HW2 8381   3.038   0.742   5.037 -0.2573  0.3117 -3.7661
 2321SOL     OW 8382   1.879   4.629   6.932 -0.4993  0.0332  0.1976
 2321SOL    HW1 8383   1.789   4.612   6.958 -0.6178 -0.5357 -0.5290
 2321SOL    HW2 8384   1.919   4.542   6.925 -0.1089  0.2388 -0.2105
 2322SOL     OW 8385   0.853   0.663   0.015 -0.1148 -0.3489  0.9761
 2322SOL    HW1 8386   0.908   0.629   0.086 -1.3675 -0.2351  2.0403
 2322SOL    HW2 8387   0.773   0.610   0.019 -1.0124  0.9462  0.9312
 2323SOL     OW 8388   6.903   6.795   1.400 -0.7691 -0.5098 -0.0787
 2323SOL    HW1 8389   6.974   6.732   1.412 -1.1495 -0.9042  0.1654
 2323SOL    HW2 8390   6.826   6.740   1.382 -0.9915 -0.0884 -0.4290
 2324SOL     OW 8391   4.593   0.927   2.781  0.2357  0.7816 -1.0861
 2324SOL    HW1 8392   4.664   0.990   2.786 -0.7827  1.9417 -0.8799
 2324SOL    HW2 8393   4.564   0.931   2.690  2.1178 -1.6546 -1.9114
 2325SOL     OW 8394   2.006   6.447   3.036 -0.5071 -0.0334  0.0669
 2325SOL    HW1 8395   1.996   6.352   3.035  0.6459 -0.1686  0.3349
 2325SOL    HW2 8396   1.956   6.477   2.960 -0.1796 -0.9286 -0.5126
 2326SOL     OW 8397   3.945   7.344   0.563  0.2028  0.3984 -0.5773
 2326SOL    HW1 8398   3.986   7.384   0.486  1.7325  0.1203  0.0446
 2326SOL    HW2 8399   4.012   7.350   0.631 -0.0284 -1.9396 -0.0748
 2327SOL     OW 8400   0.287   3.830   0.375 -0.5113 -0.2410  0.0036
 2327SOL    HW1 8401   0.326   3.743   0.367  0.3106  0.1184 -0.0788
 2327SOL    HW2 8402   0.213   3.829   0.315  1.2131  0.0293 -2.2818
 2328SOL     OW 8403   8.050   4.688   2.285 -0.5474  0.3070  0.3160
 2328SOL    HW1 8404   8.063   4.616   2.347  1.6388  0.4381  0.0873
 2328SOL    HW2 8405   7.973   4.663   2.235 -0.0286 -1.7417  0.4547
 2329SOL     OW 8406   0.540   1.625   0.829  0.4573 -1.3356  0.0957
 2329SOL    HW1 8407   0.490   1.689   0.879  1.3207  1.2292 -2.0534
 2329SOL    HW2 8408   0.484   1.548   0.824 -1.4763 -0.0740  1.2212
 2330SOL     OW 8409   6.727   6.044   4.158  0.1149  0.3304 -0.0179
 2330SOL    HW1 8410   6.676   6.083   4.087 -0.7912 -1.9924 -0.7259
 2330SOL    HW2 8411   6.662   6.000   4.213  1.1744 -1.2169  0.0412
 2331SOL     OW 8412   6.301   6.594   5.302 -0.1391 -0.2129 -0.3119
 2331SOL    HW1 8413   6.320   6.578   5.209 -3.2783  1.7463 -1.4519
 2331SOL    HW2 8414   6.378   6.640   5.334  1.1546 -1.1963 -1.8068
 2332SOL     OW 8415   6.239   0.596   0.771 -0.7989 -0.5812  0.3790
 2332SOL    HW1 8416   6.169   0.581   0.835 -1.2591 -1.2946 -0.2619
 2332SOL    HW2 8417   6.307   0.642   0.819 -1.3325 -0.6912  1.2582
 2333SOL     OW 8418   0.329   1.779   0.114  0.5528  0.0992 -0.0934
 2333SOL    HW1 8419   0.289   1.834   0.180  0.7001  1.0910 -0.8175
 2333SOL    HW2 8420   0.259   1.721   0.084 -0.0702  1.0808 -0.5730
 2334SOL     OW 8421   0.603   1.038   3.902  0.3358  0.0339 -0.1470
 2334SOL    HW1 8422   0.609   1.131   3.882  1.2768 -0.0342 -0.2466
 2334SOL    HW2 8423   0.651   0.995   3.831  0.6358 -0.4620  0.3427
 2335SOL     OW 8424   1.324   7.863   3.471 -0.8151 -0.1475  0.2243
 2335SOL    HW1 8425   1.331   7.959   3.468 -1.1715 -0.1232 -2.7085
 2335SOL    HW2 8426   1.374   7.838   3.549  2.0638  2.2257 -0.6648
 2336SOL     OW 8427   6.023   2.584   0.242  0.3924  0.5275  0.6873
 2336SOL    HW1 8428   5.944   2.534   0.224  0.6420  0.9562 -2.0413
 2336SOL    HW2 8429   6.043   2.566   0.334 -2.1925 -0.4985  1.1284
 2337SOL     OW 8430   0.650   2.537   2.115 -0.2519 -0.1977 -0.2356
 2337SOL    HW1 8431   0.635   2.614   2.171  0.1884 -0.9391  0.9407
 2337SOL    HW2 8432   0.567   2.525   2.069 -0.4050  0.8332 -0.2477
 2338SOL     OW 8433   6.692   6.995   2.174 -0.1894  0.0996 -0.2220
 2338SOL    HW1 8434   6.783   7.014   2.197 -0.4758  0.1330  0.9151
 2338SOL    HW2 8435   6.688   7.011   2.080  1.0494 -0.1741 -0.3463
 2339SOL     OW 8436   4.751   4.687   3.123 -0.0380  0.0029  0.1093
 2339SOL    HW1 8437   4.774   4.651   3.038 -1.8494 -0.7411 -0.1049
 2339SOL    HW2 8438   4.723   4.777   3.106  0.1241  0.0328  0.0038
 2340SOL     OW 8439   4.224   5.734   1.844  0.3393 -0.2390 -0.0609
 2340SOL    HW1 8440   4.278   5.814   1.847 -1.1653  0.8263 -0.1995
 2340SOL    HW2 8441   4.217   5.713   1.751  0.5428 -0.3890 -0.0415
 2341SOL     OW 8442   0.692   7.482   5.105  0.0383  0.1060 -0.1097
 2341SOL    HW1 8443   0.676   7.510   5.196 -0.0479 -1.7399  0.4823
 2341SOL    HW2 8444   0.610   7.439   5.080  1.3175 -2.8423  0.3449
 2342SOL     OW 8445   1.631   4.233   2.325  0.3516 -0.5970  0.3648
 2342SOL    HW1 8446   1.648   4.247   2.232 -0.8634  0.4250  0.2742
 2342SOL    HW2 8447   1.603   4.141   2.331  1.3143 -0.9359 -0.1275
 2343SOL     OW 8448   1.157   0.727   7.700  0.2540 -0.4812 -1.0509
 2343SOL    HW1 8449   1.153   0.725   7.604 -0.5851 -0.4235 -1.0205
 2343SOL    HW2 8450   1.105   0.652   7.728 -1.9503  1.1165 -0.6070
 2344SOL     OW 8451   7.665   3.247   2.479 -0.3659  0.1023  0.0203
 2344SOL    HW1 8452   7.600   3.308   2.513 -2.4595 -1.7051 -0.4943
 2344SOL    HW2 8453   7.725   3.232   2.552 -0.9699  1.2383  0.7702
 2345SOL     OW 8454   5.114   6.408   0.792  0.1770  0.5267  0.4429
 2345SOL    HW1 8455   5.063   6.488   0.806 -0.2760  0.0796  1.4636
 2345SOL    HW2 8456   5.177   6.431   0.724  1.0284  2.1962  1.7252
 2346SOL     OW 8457   4.188   6.403   3.698  0.9691  0.3963 -0.0572
 2346SOL    HW1 8458   4.164   6.310   3.692  2.4923 -0.1633  1.5610
 2346SOL    HW2 8459   4.105   6.449   3.710  0.1217 -0.6524 -1.5925
 2347SOL     OW 8460   7.662   0.831   3.786 -0.0581 -0.0157  0.1232
 2347SOL    HW1 8461   7.682   0.825   3.879 -0.0647 -0.2379  0.1112
 2347SOL    HW2 8462   7.580   0.880   3.782 -1.0776 -1.6183  0.3593
 2348SOL     OW 8463   2.689   3.023   4.544 -0.9924  0.1215  0.2669
 2348SOL    HW1 8464   2.644   2.997   4.625 -1.3714  0.4868  0.1737
 2348SOL    HW2 8465   2.638   2.984   4.474 -0.5457 -0.3667  0.2098
 2349SOL     OW 8466   4.758   3.265   7.055  0.3706 -0.2437  0.3208
 2349SOL    HW1 8467   4.841   3.218   7.046  1.3066  1.3549  0.2951
 2349SOL    HW2 8468   4.776   3.353   7.023 -1.3721  0.1259  0.2411
 2350SOL     OW 8469   0.090   5.834   0.647  0.7583  0.1312 -0.0505
 2350SOL    HW1 8470  -0.002   5.858   0.653  0.6607 -0.4735  1.7299
 2350SOL    HW2 8471   0.132   5.908   0.605 -0.3217  1.0857  0.4870
 2351SOL     OW 8472   7.330   6.875   4.661 -0.0976  0.1632 -0.3943
 2351SOL    HW1 8473   7.340   6.875   4.566  1.0073  0.6302 -0.2910
 2351SOL    HW2 8474   7.341   6.967   4.686 -1.2897  0.1880  0.1056
 2352SOL     OW 8475   7.364   1.788   2.861 -0.4528  0.0539  0.7817
 2352SOL    HW1 8476   7.457   1.792   2.839 -0.6415 -1.7141 -0.5731
 2352SOL    HW2 8477   7.329   1.721   2.803 -2.0504 -1.2570  3.1074
 2353SOL     OW 8478   2.087   0.604   6.409 -0.1560  0.4418 -0.0875
 2353SOL    HW1 8479   2.071   0.661   6.334  0.3427  0.2582 -0.3352
 2353SOL    HW2 8480   2.026   0.636   6.476  1.7162  2.8573  0.6203
 2354SOL     OW 8481   5.672   0.782   4.488 -0.3611  0.4207  0.3751
 2354SOL    HW1 8482   5.659   0.739   4.404  0.3668  2.6823 -1.0023
 2354SOL    HW2 8483   5.585   0.817   4.511 -0.6314 -0.4758  0.7590
 2355SOL     OW 8484   5.117   6.044   5.730 -0.6551 -0.7783 -0.8032
 2355SOL    HW1 8485   5.059   6.114   5.702  1.4527  0.8747 -1.3215
 2355SOL    HW2 8486   5.182   6.088   5.786 -0.2345 -2.6268  0.2373
 2356SOL     OW 8487   8.006   0.048   1.380  0.2476  0.1293 -0.0965
 2356SOL    HW1 8488   7.944   0.072   1.450 -1.8547 -1.3592 -1.3429
 2356SOL    HW2 8489   7.998   0.120   1.316  0.2154  0.2075 -0.0055
 2357SOL     OW 8490   5.342   7.669   0.716  0.2488  0.3005  0.2327
 2357SOL    HW1 8491   5.291   7.605   0.766  1.1359 -0.1033  0.6461
 2357SOL    HW2 8492   5.329   7.644   0.624  1.5147 -1.2216  0.4336
 2358SOL     OW 8493   7.413   5.421   7.868 -0.0687  0.8257  0.1803
 2358SOL    HW1 8494   7.473   5.357   7.907 -1.0187 -0.0364  0.2664
 2358SOL    HW2 8495   7.458   5.505   7.878  2.2526 -0.0278 -1.9411
 2359SOL     OW 8496   1.017   1.873   5.025  0.1169 -0.6933 -0.4911
 2359SOL    HW1 8497   0.985   1.786   5.002 -1.1541 -0.3473 -0.1059
 2359SOL    HW2 8498   0.974   1.893   5.108  1.2226 -0.1261 -0.0419
 2360SOL     OW 8499   0.737   7.702   1.125  0.2727  0.4491  0.4729
 2360SOL    HW1 8500   0.823   7.705   1.167  0.4812  0.4947  0.0528
 2360SOL    HW2 8501   0.757   7.682   1.033 -0.2294 -0.6315  0.5867
 2361SOL     OW 8502   1.419   3.228   6.629 -0.3465  0.3171  0.5853
 2361SOL    HW1 8503   1.353   3.241   6.560 -0.0766  0.4381  0.3507
 2361SOL    HW2 8504   1.368   3.204   6.707 -0.8419  2.5404  0.9948
 2362SOL     OW 8505   5.182   4.418   6.635 -0.5533 -0.3470 -0.1619
 2362SOL    HW1 8506   5.105   4.414   6.579 -0.0800  0.4542 -0.9085
 2362SOL    HW2 8507   5.148   4.436   6.722 -1.2733 -1.1455 -0.2655
 2363SOL     OW 8508   6.984   5.561   5.508 -0.0007  0.3100 -0.3778
 2363SOL    HW1 8509   6.948   5.501   5.443 -0.6298  1.5699 -1.2174
 2363SOL    HW2 8510   6.913   5.574   5.571  0.0884  0.2838 -0.2714
 2364SOL     OW 8511   3.539   6.661   1.059 -0.2219 -0.5476  0.0258
 2364SOL    HW1 8512   3.517   6.572   1.089  0.2256 -1.1067 -1.2361
 2364SOL    HW2 8513   3.513   6.662   0.967  0.5581  0.3665 -0.1963
 2365SOL     OW 8514   2.924   2.703   1.260  0.0596 -0.1378  0.4325
 2365SOL    HW1 8515   2.856   2.697   1.193  0.7989  0.9538 -0.4424
 2365SOL    HW2 8516   2.902   2.783   1.309 -0.2517 -0.7162  1.2625
 2366SOL     OW 8517   6.015   4.516   6.466  0.7564 -0.3133 -0.4182
 2366SOL    HW1 8518   6.081   4.463   6.510  1.8761  1.5133  0.2376
 2366SOL    HW2 8519   5.970   4.563   6.536 -0.8827 -1.0686 -0.9038
 2367SOL     OW 8520   2.297   6.921   4.021  1.2086 -0.3822  0.5221
 2367SOL    HW1 8521   2.237   6.856   3.984  2.7781 -1.5117 -0.1059
 2367SOL    HW2 8522   2.311   6.892   4.111 -0.3171  0.7287  1.1543
 2368SOL     OW 8523   1.119   3.571   6.325  0.2128  0.3104  0.3861
 2368SOL    HW1 8524   1.149   3.546   6.412  1.5240 -0.3433 -0.2329
 2368SOL    HW2 8525   1.113   3.488   6.277  1.4332  0.8362 -0.7238
 2369SOL     OW 8526   4.368   7.999   2.995 -0.3661 -0.0907  0.5948
 2369SOL    HW1 8527   4.406   7.934   3.054  1.2376 -1.2268 -1.5307
 2369SOL    HW2 8528   4.297   7.952   2.951 -0.1255  0.0230  0.0765
 2370SOL     OW 8529   1.486   2.508   4.942 -0.2871  0.2970  0.1235
 2370SOL    HW1 8530   1.420   2.440   4.950  0.0252 -0.0985 -0.5625
 2370SOL    HW2 8531   1.445   2.575   4.888  1.0821 -1.6340 -3.7059
 2371SOL     OW 8532   1.128   0.109   5.098 -0.1716 -0.0345 -0.4240
 2371SOL    HW1 8533   1.106   0.201   5.082  2.3366  0.6817 -0.1400
 2371SOL    HW2 8534   1.197   0.090   5.036 -0.7565 -1.8237 -0.5781
 2372SOL     OW 8535   7.861   7.420   0.276 -0.9173 -0.1270  0.7993
 2372SOL    HW1 8536   7.845   7.514   0.283  0.8479  0.3298 -0.3871
 2372SOL    HW2 8537   7.779   7.384   0.243 -1.4163  1.1159  0.6108
 2373SOL     OW 8538   4.993   3.148   3.528 -0.1908  0.2905  0.5270
 2373SOL    HW1 8539   5.005   3.054   3.542 -2.1535 -0.1358 -0.3461
 2373SOL    HW2 8540   5.068   3.188   3.571  0.6519 -1.6669  0.9918
 2374SOL     OW 8541   4.533   4.366   3.932 -0.2703 -0.1772  0.6834
 2374SOL    HW1 8542   4.484   4.434   3.887  1.0066  0.3830  0.0766
 2374SOL    HW2 8543   4.536   4.396   4.024 -0.8815 -0.1247  0.6886
 2375SOL     OW 8544   6.396   5.790   4.889 -0.2603  0.3711  0.1237
 2375SOL    HW1 8545   6.472   5.830   4.931 -0.3704  1.2316 -0.4756
 2375SOL    HW2 8546   6.433   5.727   4.828  0.0108  1.1785 -0.5690
 2376SOL     OW 8547   5.166   2.736   5.193 -0.4240 -0.4555 -0.0459
 2376SOL    HW1 8548   5.162   2.703   5.283 -2.1845 -0.9139 -0.2502
 2376SOL    HW2 8549   5.115   2.673   5.142 -0.1565  0.2438 -1.2199
 2377SOL     OW 8550   1.066   6.188   0.855 -0.1436  0.2243 -0.0899
 2377SOL    HW1 8551   0.974   6.192   0.827  0.0072 -2.2624 -1.2489
 2377SOL    HW2 8552   1.112   6.245   0.793 -0.7106  0.3162 -0.4395
 2378SOL     OW 8553   3.901   5.698   1.194 -0.1760  0.1589  0.1138
 2378SOL    HW1 8554   3.813   5.660   1.185 -1.2550  2.7479 -1.4357
 2378SOL    HW2 8555   3.941   5.685   1.108  0.3251  0.4561  0.3017
 2379SOL     OW 8556   2.214   6.188   0.949  0.5505 -0.2785  0.1463
 2379SOL    HW1 8557   2.288   6.237   0.915  0.0351 -0.8252 -1.9092
 2379SOL    HW2 8558   2.161   6.254   0.994  0.4214  0.9095 -1.6093
 2380SOL     OW 8559   6.765   4.198   5.628 -0.1058 -0.0570 -1.0976
 2380SOL    HW1 8560   6.728   4.161   5.548 -1.8864 -1.3511  0.2264
 2380SOL    HW2 8561   6.826   4.131   5.659 -0.3487 -0.1221 -0.7531
 2381SOL     OW 8562   6.805   1.406   2.770  0.1565  0.3005  0.3449
 2381SOL    HW1 8563   6.721   1.388   2.811 -0.0860  0.5818 -0.0237
 2381SOL    HW2 8564   6.791   1.485   2.718  0.2280 -0.4868 -0.9279
 2382SOL     OW 8565   3.520   6.363   2.149 -0.5307 -0.2920 -0.5626
 2382SOL    HW1 8566   3.443   6.416   2.170 -1.1303 -0.9176 -1.1451
 2382SOL    HW2 8567   3.563   6.411   2.078  0.4457  0.8184  0.7202
 2383SOL     OW 8568   7.456   4.205   6.924 -0.6408 -0.4323  0.6159
 2383SOL    HW1 8569   7.395   4.195   6.997 -0.5462 -0.3424  0.7078
 2383SOL    HW2 8570   7.401   4.228   6.849 -0.9298 -2.1094  0.2746
 2384SOL     OW 8571   0.543   0.973   1.647 -0.2237 -0.0494 -0.2203
 2384SOL    HW1 8572   0.492   0.930   1.716  0.9491 -1.1330  0.0065
 2384SOL    HW2 8573   0.634   0.959   1.672  0.2984  3.8121  0.6031
 2385SOL     OW 8574   1.892   3.955   0.360  0.1864 -0.4810  0.2983
 2385SOL    HW1 8575   1.890   3.868   0.321 -0.1500  0.5419 -2.1750
 2385SOL    HW2 8576   1.829   4.006   0.309  1.0886  1.4599  1.0081
 2386SOL     OW 8577   5.854   5.136   2.855 -0.1875 -0.0948  0.3272
 2386SOL    HW1 8578   5.832   5.205   2.917 -1.2165  0.7597 -0.9229
 2386SOL    HW2 8579   5.947   5.120   2.869 -0.1850  0.7635  1.4101
 2387SOL     OW 8580   2.782   0.586   5.661 -1.1122 -0.3373  0.0067
 2387SOL    HW1 8581   2.865   0.619   5.695 -0.0134 -0.3537 -2.4247
 2387SOL    HW2 8582   2.725   0.663   5.658 -0.8965 -0.1385  0.8454
 2388SOL     OW 8583   4.266   7.625   5.451 -0.4283  0.0382  0.2607
 2388SOL    HW1 8584   4.273   7.530   5.460 -0.2608 -0.2077 -1.9495
 2388SOL    HW2 8585   4.172   7.641   5.442 -0.3452 -0.1538 -1.1748
 2389SOL     OW 8586   4.591   4.697   1.627  0.8137 -0.0977 -0.2197
 2389SOL    HW1 8587   4.655   4.637   1.588  1.9651  1.5424 -0.9765
 2389SOL    HW2 8588   4.506   4.657   1.610  1.5132 -1.2168 -1.2008
 2390SOL     OW 8589   0.148   2.557   0.799 -0.0492 -0.4170  0.1325
 2390SOL    HW1 8590   0.082   2.602   0.746 -0.7455 -0.2420  1.1262
 2390SOL    HW2 8591   0.229   2.565   0.748 -0.6995 -0.2629 -0.9013
 2391SOL     OW 8592   7.899   7.796   2.655  0.5910  0.7465 -0.1523
 2391SOL    HW1 8593   7.868   7.887   2.654 -0.1997  0.5125  1.1381
 2391SOL    HW2 8594   7.869   7.761   2.739  2.5571 -0.1496  0.2255
 2392SOL     OW 8595   0.961   5.528   2.023  0.1069 -0.1125  0.3205
 2392SOL    HW1 8596   0.919   5.489   2.100 -0.5088 -0.0903  0.0013
 2392SOL    HW2 8597   1.050   5.493   2.024  0.1108 -0.0929  1.0543
 2393SOL     OW 8598   7.408   0.820   3.572  0.2022 -0.0061 -0.6618
 2393SOL    HW1 8599   7.445   0.893   3.621  0.1907  0.9122 -1.9687
 2393SOL    HW2 8600   7.317   0.846   3.554  0.2017 -0.3199 -1.1481
 2394SOL     OW 8601   6.005   5.849   3.225 -0.4540  0.6229  0.7117
 2394SOL    HW1 8602   6.048   5.914   3.169 -0.0441 -0.2880 -0.0641
 2394SOL    HW2 8603   5.938   5.810   3.169  1.3111 -1.7782  0.0596
 2395SOL     OW 8604   2.533   2.155   6.644 -0.4192  0.5706 -0.3371
 2395SOL    HW1 8605   2.560   2.068   6.613 -2.0306  0.0368 -0.3067
 2395SOL    HW2 8606   2.595   2.215   6.601  1.2909 -0.6237  0.3393
 2396SOL     OW 8607   1.786   8.040   5.751  0.1327  0.4382 -0.4381
 2396SOL    HW1 8608   1.798   8.008   5.841 -2.1959  1.0104  0.1300
 2396SOL    HW2 8609   1.835   8.122   5.748 -0.2636  0.7161  0.4947
 2397SOL     OW 8610   5.765   3.430   6.712  0.3309  0.2078 -0.0547
 2397SOL    HW1 8611   5.688   3.472   6.672  0.2119  0.7005  0.6660
 2397SOL    HW2 8612   5.839   3.468   6.665  0.1685  0.3959 -0.1642
 2398SOL     OW 8613   6.787   0.383   1.040 -0.5065  0.1471 -0.5875
 2398SOL    HW1 8614   6.724   0.354   0.973 -0.5757 -1.3261  0.0684
 2398SOL    HW2 8615   6.872   0.358   1.005 -0.2684  1.9485 -1.3777
 2399SOL     OW 8616   1.454   0.232   5.147  0.2837 -0.7872 -0.0142
 2399SOL    HW1 8617   1.392   0.305   5.142 -0.0696 -1.0627  0.3448
 2399SOL    HW2 8618   1.507   0.250   5.225  0.7643 -0.4736 -0.4043
 2400SOL     OW 8619   5.210   5.631   4.154  0.3126  0.0731  0.0549
 2400SOL    HW1 8620   5.275   5.561   4.157 -0.1573 -0.4678 -1.3814
 2400SOL    HW2 8621   5.136   5.592   4.108 -0.1267  1.3969 -0.3975
 2401SOL     OW 8622   0.528   5.008   7.319 -0.8603 -0.0103 -0.1935
 2401SOL    HW1 8623   0.450   4.953   7.311  1.2067 -3.1554 -0.4412
 2401SOL    HW2 8624   0.532   5.031   7.412 -1.0462 -1.5276  0.2206
 2402SOL     OW 8625   7.425   3.933   2.279  0.0328 -0.7887 -0.5785
 2402SOL    HW1 8626   7.338   3.963   2.303  0.3197  0.2411 -0.7710
 2402SOL    HW2 8627   7.447   3.866   2.344 -0.6877 -0.6878 -0.2240
 2403SOL     OW 8628   7.859   2.428   3.833 -0.1013 -0.1308 -0.8573
 2403SOL    HW1 8629   7.922   2.480   3.883 -1.1600 -1.5624  2.2067
 2403SOL    HW2 8630   7.911   2.387   3.764  1.1280  3.2111 -2.1122
 2404SOL     OW 8631   3.163   4.709   4.392 -0.8354  0.1194 -0.6339
 2404SOL    HW1 8632   3.163   4.724   4.486  0.4156 -1.8758 -0.2638
 2404SOL    HW2 8633   3.156   4.614   4.382 -0.0919  0.2158 -2.5233
 2405SOL     OW 8634   7.054   4.619   6.019 -0.4459  0.3975  0.3093
 2405SOL    HW1 8635   7.040   4.546   5.959 -0.8136  1.8993 -1.5407
 2405SOL    HW2 8636   7.097   4.581   6.095 -1.4660 -1.8785 -0.1860
 2406SOL     OW 8637   7.716   3.848   5.943 -0.4515  0.3832 -0.2217
 2406SOL    HW1 8638   7.744   3.757   5.950  1.6870  1.0376  0.4542
 2406SOL    HW2 8639   7.707   3.863   5.849 -0.3265 -0.3816 -0.3596
 2407SOL     OW 8640   3.450   5.709   3.837 -0.0601 -0.1187 -0.1598
 2407SOL    HW1 8641   3.367   5.749   3.812  1.1557  2.4581 -0.4850
 2407SOL    HW2 8642   3.430   5.660   3.916 -1.7090  1.2456  0.3345
 2408SOL     OW 8643   1.644   6.892   4.422  0.5126 -0.1207  0.1155
 2408SOL    HW1 8644   1.580   6.964   4.417  1.9694  1.2317 -0.0453
 2408SOL    HW2 8645   1.725   6.930   4.387  1.6279 -1.5013  1.0932
 2409SOL     OW 8646   8.031   4.556   5.366 -0.5163  0.1008  0.4496
 2409SOL    HW1 8647   7.955   4.563   5.308  0.3723  0.6875 -0.7052
 2409SOL    HW2 8648   8.106   4.551   5.306  0.3598 -0.4478  1.5553
 2410SOL     OW 8649   0.202   6.294   3.476 -0.2421  0.7202  0.2617
 2410SOL    HW1 8650   0.152   6.362   3.432 -0.2243  0.9361  0.5757
 2410SOL    HW2 8651   0.236   6.239   3.405 -2.7070 -0.7095  0.0802
 2411SOL     OW 8652   3.159   6.633   0.626  0.1604 -0.5917  0.2226
 2411SOL    HW1 8653   3.214   6.630   0.547  0.4987 -0.2395  0.4441
 2411SOL    HW2 8654   3.070   6.621   0.592  0.0750  1.5996 -0.4690
 2412SOL     OW 8655   4.131   0.330   4.970  0.5572  0.7099 -0.3266
 2412SOL    HW1 8656   4.075   0.371   5.036  0.8795  0.0503  0.3764
 2412SOL    HW2 8657   4.123   0.387   4.893 -0.2964  1.1629  0.0792
 2413SOL     OW 8658   4.207   7.282   4.162 -0.4604 -0.3716  0.1608
 2413SOL    HW1 8659   4.296   7.247   4.162 -0.7699 -1.1900  1.1899
 2413SOL    HW2 8660   4.205   7.340   4.086  1.3896  0.7835  0.9131
 2414SOL     OW 8661   3.425   1.641   1.341 -0.6471  0.0951  0.1230
 2414SOL    HW1 8662   3.347   1.636   1.285  0.1589 -0.8017 -0.9743
 2414SOL    HW2 8663   3.498   1.647   1.280  0.2708 -0.9049  1.0811
 2415SOL     OW 8664   0.582   5.112   7.588  0.0752 -0.5246  0.3313
 2415SOL    HW1 8665   0.631   5.167   7.526  2.3789 -1.2624  1.3740
 2415SOL    HW2 8666   0.585   5.160   7.671 -1.7392 -0.2134  0.2514
 2416SOL     OW 8667   7.991   4.730   2.655 -0.2518 -0.0001  0.3104
 2416SOL    HW1 8668   8.012   4.669   2.726  0.3626  1.0660  1.0737
 2416SOL    HW2 8669   8.060   4.716   2.590  1.0484  1.2163  1.3635
 2417SOL     OW 8670   6.474   4.160   3.004  0.7877  0.2450 -0.0782
 2417SOL    HW1 8671   6.481   4.127   2.914 -0.1473 -1.4426  0.4238
 2417SOL    HW2 8672   6.465   4.081   3.058  1.0055  1.2422  1.4706
 2418SOL     OW 8673   2.031   3.476   3.863  0.2515 -0.1097  0.3379
 2418SOL    HW1 8674   2.117   3.484   3.906 -0.2404  0.9594  1.1838
 2418SOL    HW2 8675   1.982   3.417   3.920  0.6360 -1.3117 -0.5375
 2419SOL     OW 8676   6.915   5.664   3.056 -0.5937  0.4813  0.4709
 2419SOL    HW1 8677   6.947   5.624   3.137  0.2449 -0.1486 -0.1509
 2419SOL    HW2 8678   6.933   5.757   3.066 -0.3889  0.3903  0.9592
 2420SOL     OW 8679   6.983   1.287   4.704 -0.0330  0.0875  0.4603
 2420SOL    HW1 8680   6.947   1.235   4.632  0.0990 -0.5406  0.8465
 2420SOL    HW2 8681   6.916   1.354   4.719  0.2540  0.6694 -0.7083
 2421SOL     OW 8682   3.090   4.310   1.841 -0.2961 -0.0429 -0.2771
 2421SOL    HW1 8683   3.056   4.301   1.752  0.8214 -1.2133 -0.6100
 2421SOL    HW2 8684   3.018   4.352   1.889 -1.6507 -1.1194 -1.2694
 2422SOL     OW 8685   6.592   1.774   4.668 -0.0632  0.0434 -0.0661
 2422SOL    HW1 8686   6.548   1.816   4.593 -0.5540  0.7473  0.6032
 2422SOL    HW2 8687   6.682   1.762   4.639 -0.7137 -1.6900 -1.5798
 2423SOL     OW 8688   6.032   6.766   3.711  0.0641  0.0877 -0.4574
 2423SOL    HW1 8689   6.036   6.861   3.701 -1.3804  0.0684 -1.6167
 2423SOL    HW2 8690   6.017   6.752   3.805 -0.3471  1.0279 -0.3754
 2424SOL     OW 8691   1.554   4.768   6.474  0.2584  0.5825 -1.0483
 2424SOL    HW1 8692   1.507   4.699   6.428  1.1828 -0.3095 -0.6942
 2424SOL    HW2 8693   1.576   4.832   6.406  0.5103 -0.1012 -1.6237
 2425SOL     OW 8694   7.950   2.970   7.331  0.5512  0.3079  0.2920
 2425SOL    HW1 8695   8.020   3.001   7.273 -0.3248  0.4344 -0.7310
 2425SOL    HW2 8696   7.980   2.884   7.361  0.7558 -0.0469 -0.8673
 2426SOL     OW 8697   1.262   4.382   5.088  0.5558  0.5069  0.4371
 2426SOL    HW1 8698   1.320   4.354   5.017 -0.2221 -1.4396  0.5058
 2426SOL    HW2 8699   1.292   4.333   5.165 -2.6968 -2.7511 -0.0931
 2427SOL     OW 8700   0.985   3.509   1.830 -0.8311  0.4916  0.2264
 2427SOL    HW1 8701   0.946   3.504   1.743  1.0632  0.3212 -0.6541
 2427SOL    HW2 8702   0.976   3.421   1.866 -0.6982  0.2957 -0.2200
 2428SOL     OW 8703   3.831   7.831   2.076  0.4140 -0.2658 -0.2388
 2428SOL    HW1 8704   3.810   7.829   2.170 -2.8062  1.3194 -0.7846
 2428SOL    HW2 8705   3.852   7.923   2.059 -0.0385 -0.3419 -1.2528
 2429SOL     OW 8706   7.600   0.725   7.717  0.1617  0.5488  0.8214
 2429SOL    HW1 8707   7.552   0.756   7.639 -0.7884  1.0000  1.5667
 2429SOL    HW2 8708   7.593   0.797   7.780 -2.2428 -1.1562  2.6687
 2430SOL     OW 8709   6.224   7.138   3.071 -0.0770  0.1135 -0.2553
 2430SOL    HW1 8710   6.219   7.135   2.975 -0.3430  2.6947 -0.3991
 2430SOL    HW2 8711   6.299   7.195   3.088 -2.0194  2.4615  0.9535
 2431SOL     OW 8712   7.486   6.547   3.675 -0.3812  0.0495  0.1644
 2431SOL    HW1 8713   7.424   6.521   3.607  0.5941  0.5909 -0.9525
 2431SOL    HW2 8714   7.567   6.501   3.654  0.2337  1.0181  0.3657
 2432SOL     OW 8715   6.093   3.920   4.589 -0.6025  0.3446  0.2475
 2432SOL    HW1 8716   6.125   3.897   4.502 -0.1858  0.8599  0.2594
 2432SOL    HW2 8717   6.160   3.888   4.649 -0.7349  0.2734  0.3588
 2433SOL     OW 8718   1.301   2.281   4.841  0.1247  0.1262 -0.2573
 2433SOL    HW1 8719   1.240   2.348   4.873 -1.9557 -0.6343 -2.3656
 2433SOL    HW2 8720   1.283   2.204   4.895  0.6631  0.4827  0.4424
 2434SOL     OW 8721   7.523   5.831   0.830 -0.0319  0.1102  0.1585
 2434SOL    HW1 8722   7.438   5.851   0.870 -0.2522 -1.1975  0.3779
 2434SOL    HW2 8723   7.582   5.817   0.903  0.7119  2.1501  0.0286
 2435SOL     OW 8724   4.452   1.814   3.996 -0.5967 -0.3845 -0.1064
 2435SOL    HW1 8725   4.545   1.794   3.981 -0.6626  0.2640 -1.5363
 2435SOL    HW2 8726   4.441   1.805   4.091  1.2858  0.9857  0.2985
 2436SOL     OW 8727   2.657   4.161   3.042  0.2889 -0.3683  0.0762
 2436SOL    HW1 8728   2.650   4.115   2.959 -0.5246 -0.3553  0.1313
 2436SOL    HW2 8729   2.666   4.253   3.018 -1.1944 -0.2192  0.0024
 2437SOL     OW 8730   5.777   0.835   6.750  0.5655  0.2431  0.5299
 2437SOL    HW1 8731   5.832   0.771   6.707  1.7293  1.0714  0.7436
 2437SOL    HW2 8732   5.821   0.854   6.833  0.0219  0.9963  0.6646
 2438SOL     OW 8733   7.618   1.579   2.329  0.3092 -0.4199 -0.0846
 2438SOL    HW1 8734   7.595   1.616   2.414  0.6501 -1.2119  0.3696
 2438SOL    HW2 8735   7.607   1.484   2.341  1.4175 -0.6262 -0.5799
 2439SOL     OW 8736   5.512   7.284   4.435 -0.2213  0.1981 -0.1107
 2439SOL    HW1 8737   5.432   7.267   4.385  0.0319 -4.8270  0.7180
 2439SOL    HW2 8738   5.582   7.246   4.381  0.7452 -0.7640  1.7265
 2440SOL     OW 8739   2.024   3.706   5.010 -0.7348 -0.0259  0.5143
 2440SOL    HW1 8740   1.991   3.645   4.943  1.0094 -2.3308  1.5852
 2440SOL    HW2 8741   1.994   3.669   5.093  1.4887 -0.3063  1.2797
 2441SOL     OW 8742   1.587   0.552   5.519  0.3652 -0.0428 -0.0857
 2441SOL    HW1 8743   1.531   0.525   5.592 -0.2470  0.0035 -0.5282
 2441SOL    HW2 8744   1.672   0.511   5.538 -0.0122 -0.7034  0.2389
 2442SOL     OW 8745   4.813   2.761   0.732 -0.5466 -0.1460 -0.5739
 2442SOL    HW1 8746   4.749   2.819   0.773  0.5807  0.3758  0.5440
 2442SOL    HW2 8747   4.799   2.772   0.638  0.4584  3.0111 -0.4872
 2443SOL     OW 8748   7.210   4.907   5.722  0.1354  0.0319 -0.3654
 2443SOL    HW1 8749   7.207   4.813   5.741 -3.3192 -0.1142 -1.0065
 2443SOL    HW2 8750   7.260   4.944   5.795  0.2387 -2.1258  0.7523
 2444SOL     OW 8751   6.025   2.326   5.534 -0.3961  0.1114 -0.2353
 2444SOL    HW1 8752   5.932   2.338   5.515 -0.0545  1.6722 -1.1408
 2444SOL    HW2 8753   6.029   2.306   5.627 -1.4761  2.9027  0.4926
 2445SOL     OW 8754   7.592   2.516   5.539 -0.2737  0.3376  0.1087
 2445SOL    HW1 8755   7.518   2.460   5.562 -0.6889  0.3899 -1.0276
 2445SOL    HW2 8756   7.602   2.574   5.614 -0.1445 -0.9275  1.1063
 2446SOL     OW 8757   0.955   1.735   5.862 -0.0233 -0.0796  0.3447
 2446SOL    HW1 8758   0.935   1.646   5.833 -0.3237  0.1309 -0.1147
 2446SOL    HW2 8759   0.899   1.749   5.938 -1.2663  0.3133 -0.6080
 2447SOL     OW 8760   1.842   4.025   0.940  0.0038 -0.7718 -0.1673
 2447SOL    HW1 8761   1.820   4.006   1.032  2.0517 -0.9902  0.3286
 2447SOL    HW2 8762   1.846   4.120   0.936  1.3952 -0.7789  0.3997
 2448SOL     OW 8763   0.129   2.287   0.715 -0.6675 -0.1320  0.2113
 2448SOL    HW1 8764   0.102   2.341   0.790 -0.3119  1.6485 -0.8886
 2448SOL    HW2 8765   0.224   2.285   0.721 -0.7106 -2.2550  1.2692
 2449SOL     OW 8766   2.490   4.095   4.839 -0.0609 -0.0997  0.0506
 2449SOL    HW1 8767   2.551   4.169   4.837 -1.1735  0.8410 -0.1605
 2449SOL    HW2 8768   2.540   4.024   4.878  1.3110  0.5148 -0.5306
 2450SOL     OW 8769   1.482   1.607   7.245 -0.4457  0.1929  0.2651
 2450SOL    HW1 8770   1.449   1.629   7.333 -1.2072  0.3287 -0.0438
 2450SOL    HW2 8771   1.508   1.691   7.207  0.7951  0.0207  0.7129
 2451SOL     OW 8772   5.106   6.722   3.254 -0.2979  0.2590 -0.0287
 2451SOL    HW1 8773   5.129   6.804   3.209 -0.1884  0.8332  1.0362
 2451SOL    HW2 8774   5.122   6.740   3.346  0.2662 -1.1566  0.1799
 2452SOL     OW 8775   1.566   4.494   6.610  0.2740 -0.0167 -0.3363
 2452SOL    HW1 8776   1.477   4.500   6.647  1.3812  0.9564  2.4095
 2452SOL    HW2 8777   1.616   4.445   6.675  2.1902  1.0468 -0.9459
 2453SOL     OW 8778   7.662   7.849   3.223  0.0559  0.4539 -0.2429
 2453SOL    HW1 8779   7.730   7.822   3.284 -0.9901 -0.6460  0.4610
 2453SOL    HW2 8780   7.672   7.944   3.217 -0.4848  0.7590  2.5107
 2454SOL     OW 8781   1.795   3.623   4.866 -0.2399 -0.0121  0.2342
 2454SOL    HW1 8782   1.749   3.544   4.837 -1.8388  1.4858 -1.6670
 2454SOL    HW2 8783   1.755   3.645   4.950 -0.7985 -0.4668  0.0941
 2455SOL     OW 8784   6.343   2.905   4.896  0.3922 -0.3916 -0.3823
 2455SOL    HW1 8785   6.316   2.845   4.966  0.0674 -0.3369 -0.4609
 2455SOL    HW2 8786   6.425   2.867   4.863 -0.2688 -1.2857 -1.0252
 2456SOL     OW 8787   4.251   3.972   1.612 -0.2876 -0.2989  0.5431
 2456SOL    HW1 8788   4.289   4.054   1.580 -0.6635 -0.6669 -0.9133
 2456SOL    HW2 8789   4.217   3.994   1.698  1.4965  0.5342  1.0887
 2457SOL     OW 8790   0.864   6.496   0.979 -0.2338  0.4637  0.3512
 2457SOL    HW1 8791   0.920   6.441   1.033 -1.1188  0.6883  1.5449
 2457SOL    HW2 8792   0.925   6.545   0.924  0.6574 -0.3240  0.5984
 2458SOL     OW 8793   2.673   3.167   0.734 -0.0292  0.2989  0.3784
 2458SOL    HW1 8794   2.707   3.102   0.672  1.3000  0.7884  0.5461
 2458SOL    HW2 8795   2.623   3.116   0.798  0.0529 -0.4170 -0.1175
 2459SOL     OW 8796   6.188   2.044   7.703 -0.4388  0.4509 -0.1170
 2459SOL    HW1 8797   6.225   2.076   7.621  2.9081  0.4684  1.2356
 2459SOL    HW2 8798   6.197   1.949   7.699 -1.5006  0.3402 -0.2556
 2460SOL     OW 8799   0.536   4.477   6.586  0.7745  0.0334  0.4330
 2460SOL    HW1 8800   0.552   4.514   6.673 -0.3816  0.6974  0.3766
 2460SOL    HW2 8801   0.501   4.550   6.535  0.9998 -0.4721 -0.4578
 2461SOL     OW 8802   6.083   1.747   7.299 -0.1996  0.5031 -0.0244
 2461SOL    HW1 8803   6.174   1.723   7.284 -1.1474 -1.9007 -2.9038
 2461SOL    HW2 8804   6.056   1.691   7.372  0.4121  0.6939  0.3556
 2462SOL     OW 8805   4.149   5.401   1.255 -0.3986  0.8026 -0.0840
 2462SOL    HW1 8806   4.170   5.492   1.279 -1.5668  1.4177 -1.2611
 2462SOL    HW2 8807   4.181   5.392   1.166  0.5651 -0.2624  0.3612
 2463SOL     OW 8808   4.213   1.034   0.435 -0.0149 -0.2065  0.2624
 2463SOL    HW1 8809   4.174   1.093   0.500 -0.4628  0.3792 -0.5271
 2463SOL    HW2 8810   4.255   0.966   0.487  0.0292  0.5058  1.1828
 2464SOL     OW 8811   2.914   1.321   0.815 -0.0212  0.1200 -0.2138
 2464SOL    HW1 8812   2.932   1.415   0.820  1.7731 -0.1926 -0.2421
 2464SOL    HW2 8813   2.986   1.281   0.864 -0.9998 -1.2305  0.1649
 2465SOL     OW 8814   7.310   1.605   4.536  0.2331  0.3045  0.2888
 2465SOL    HW1 8815   7.383   1.613   4.475  0.0155 -0.1642 -0.0342
 2465SOL    HW2 8816   7.233   1.602   4.480  0.0459 -0.3061  0.5825
 2466SOL     OW 8817   6.555   6.917   0.384 -0.3025  0.0555 -0.3879
 2466SOL    HW1 8818   6.603   6.834   0.386 -0.8149 -0.2420  0.9847
 2466SOL    HW2 8819   6.623   6.985   0.381  0.1510 -0.3911 -0.3390
 2467SOL     OW 8820   2.193   4.796   5.323 -0.5034  0.5833  0.6236
 2467SOL    HW1 8821   2.258   4.862   5.345  0.6461  0.1390 -1.2608
 2467SOL    HW2 8822   2.204   4.780   5.230 -1.2783 -1.6824  0.8366
 2468SOL     OW 8823   5.323   7.178   3.734 -0.5757 -0.4215  0.1444
 2468SOL    HW1 8824   5.407   7.224   3.729 -1.0003  0.4324  0.5981
 2468SOL    HW2 8825   5.308   7.144   3.646 -1.5882  2.7556 -1.0447
 2469SOL     OW 8826   5.571   7.743   1.695  0.1241 -0.3367 -0.8978
 2469SOL    HW1 8827   5.551   7.680   1.626 -1.2750 -0.1614 -0.6785
 2469SOL    HW2 8828   5.523   7.711   1.772  1.0698 -0.1303 -0.1936
 2470SOL     OW 8829   2.923   0.338   4.874  0.1092  0.0191 -0.3846
 2470SOL    HW1 8830   2.959   0.419   4.836  0.9932 -0.8233 -1.4103
 2470SOL    HW2 8831   2.868   0.301   4.805 -1.6795  0.5665  0.6784
 2471SOL     OW 8832   2.502   0.241   0.373  0.2328 -0.2601 -0.2462
 2471SOL    HW1 8833   2.584   0.195   0.356 -0.8634 -2.1197 -0.8763
 2471SOL    HW2 8834   2.480   0.220   0.464  0.5832  0.4913  0.0213
 2472SOL     OW 8835   1.975   1.176   2.079  0.0368 -0.0924  0.0477
 2472SOL    HW1 8836   1.922   1.101   2.107  0.7775  0.0138  1.8444
 2472SOL    HW2 8837   2.060   1.139   2.057  0.0589  0.0876 -0.1798
 2473SOL     OW 8838   3.013   3.829   7.420  0.1498 -0.2851  0.0601
 2473SOL    HW1 8839   2.928   3.825   7.465  0.6541 -0.1532  1.0305
 2473SOL    HW2 8840   3.000   3.894   7.351  0.1352  1.4664  1.6681
 2474SOL     OW 8841   2.736   6.728   3.424 -0.0728 -0.3642  0.6286
 2474SOL    HW1 8842   2.809   6.774   3.383  1.1442 -0.9138  2.1045
 2474SOL    HW2 8843   2.674   6.797   3.448  0.3749  0.1964  0.1903
 2475SOL     OW 8844   6.161   7.677   7.574  0.5661 -0.0079  0.8303
 2475SOL    HW1 8845   6.154   7.647   7.664 -2.2867 -1.0890  0.3392
 2475SOL    HW2 8846   6.113   7.612   7.523 -1.1832  2.5416 -0.9880
 2476SOL     OW 8847   3.149   5.641   2.043  0.4909 -0.5445  0.2544
 2476SOL    HW1 8848   3.124   5.699   1.972  2.1396  0.8362  0.7437
 2476SOL    HW2 8849   3.103   5.559   2.024  0.7711 -0.1902 -2.3242
 2477SOL     OW 8850   1.358   6.612   1.295 -0.3625  0.3961  0.2677
 2477SOL    HW1 8851   1.332   6.535   1.345  1.4735 -0.3454  0.1638
 2477SOL    HW2 8852   1.450   6.624   1.317 -0.0542  1.2638 -1.3744
 2478SOL     OW 8853   3.100   7.086   6.918 -0.4098  0.9619  0.3084
 2478SOL    HW1 8854   3.026   7.110   6.863 -0.0131  0.5056 -0.4301
 2478SOL    HW2 8855   3.108   7.159   6.980 -0.4135  1.8258 -0.6872
 2479SOL     OW 8856   0.492   5.807   2.482  0.0412  0.5761  0.3810
 2479SOL    HW1 8857   0.464   5.818   2.572 -3.0089 -2.5713  0.0560
 2479SOL    HW2 8858   0.540   5.724   2.481  2.5706  1.9311 -0.5365
 2480SOL     OW 8859   5.447   0.660   7.095 -0.2617 -0.1189 -0.0823
 2480SOL    HW1 8860   5.436   0.574   7.138  1.8352 -0.4610 -0.1282
 2480SOL    HW2 8861   5.529   0.652   7.046 -0.0131  1.9283 -0.0770
 2481SOL     OW 8862   2.378   3.379   6.107 -0.0858 -0.0017  0.2360
 2481SOL    HW1 8863   2.438   3.304   6.106 -0.5887 -0.4200  1.0615
 2481SOL    HW2 8864   2.291   3.340   6.092 -0.4174  0.3457  1.2202
 2482SOL     OW 8865   7.853   2.415   6.134 -0.1115  0.2965  0.7675
 2482SOL    HW1 8866   7.834   2.416   6.228  0.1978 -1.1892  0.8833
 2482SOL    HW2 8867   7.796   2.347   6.099 -1.4447  1.9545 -0.4548
 2483SOL     OW 8868   1.610   5.470   5.169 -0.6531 -0.5897  0.4721
 2483SOL    HW1 8869   1.569   5.397   5.214 -1.6764  0.0416  0.5881
 2483SOL    HW2 8870   1.680   5.499   5.228 -0.5049 -1.1989  0.6058
 2484SOL     OW 8871   5.750   6.804   0.923 -1.0734  0.0154 -0.5531
 2484SOL    HW1 8872   5.835   6.844   0.905 -0.1946 -0.3140  2.3497
 2484SOL    HW2 8873   5.735   6.745   0.849  1.2645  0.0117 -1.1056
 2485SOL     OW 8874   4.495   5.511   8.009 -0.1681 -0.0225 -0.4359
 2485SOL    HW1 8875   4.471   5.431   8.055 -0.1737 -0.8617 -1.8116
 2485SOL    HW2 8876   4.590   5.503   7.994  0.1251  0.9513  0.6879
 2486SOL     OW 8877   6.048   5.463   3.469  0.0685  0.2019 -0.1822
 2486SOL    HW1 8878   6.064   5.407   3.545  1.6917 -0.4075 -0.9273
 2486SOL    HW2 8879   6.024   5.548   3.507 -0.2760 -0.3939  0.9840
 2487SOL     OW 8880   7.698   0.353   6.928 -0.6050  0.3179 -0.1524
 2487SOL    HW1 8881   7.768   0.291   6.910 -1.4540 -0.1940 -1.9046
 2487SOL    HW2 8882   7.618   0.308   6.900 -1.4941  1.3655  0.6088
 2488SOL     OW 8883   1.575   6.823   5.064  0.1917  0.3797 -0.6330
 2488SOL    HW1 8884   1.670   6.817   5.065  0.1791  0.2331 -0.1676
 2488SOL    HW2 8885   1.556   6.916   5.051  0.3958  0.2175 -2.3198
 2489SOL     OW 8886   0.951   4.196   7.792 -0.5100  0.0121 -0.0548
 2489SOL    HW1 8887   0.894   4.150   7.730 -0.2858 -1.2892  0.6641
 2489SOL    HW2 8888   0.962   4.134   7.864  0.9769  0.6494  0.2952
 2490SOL     OW 8889   1.077   5.823   0.654  0.1448 -0.4887 -0.2767
 2490SOL    HW1 8890   0.993   5.868   0.666 -0.0245 -1.2476  2.0260
 2490SOL    HW2 8891   1.085   5.766   0.731  2.5291 -0.8521 -0.6949
 2491SOL     OW 8892   1.484   7.120   4.421  0.6679 -0.2722  0.4052
 2491SOL    HW1 8893   1.405   7.085   4.381  0.4518  0.1134  0.4975
 2491SOL    HW2 8894   1.509   7.194   4.365  1.9380 -1.4360 -0.6340
 2492SOL     OW 8895   1.283   2.681   2.561 -0.9213 -0.6207 -0.1379
 2492SOL    HW1 8896   1.287   2.641   2.647 -0.6909  0.2971  0.2942
 2492SOL    HW2 8897   1.324   2.618   2.502  0.7562 -0.4078  0.7548
 2493SOL     OW 8898   0.184   6.078   4.875  0.2068  0.2793  0.4925
 2493SOL    HW1 8899   0.149   6.064   4.787  0.1156  2.9652  0.0305
 2493SOL    HW2 8900   0.120   6.037   4.933 -0.8831  0.3759 -0.6008
 2494SOL     OW 8901   4.450   3.431   2.070  0.7496  0.2356 -0.1518
 2494SOL    HW1 8902   4.451   3.524   2.047 -0.9462  0.4405  0.4919
 2494SOL    HW2 8903   4.379   3.394   2.018  1.6091 -0.7977 -0.6425
 2495SOL     OW 8904   0.970   7.397   1.048  0.3940 -0.1360  0.1731
 2495SOL    HW1 8905   1.057   7.392   1.008  0.4246  0.5878  0.1472
 2495SOL    HW2 8906   0.910   7.410   0.974  0.4511  1.2222  0.3495
 2496SOL     OW 8907   5.091   6.859   0.109 -0.3130  0.4809 -0.1938
 2496SOL    HW1 8908   5.029   6.819   0.171 -0.8571  1.7041  0.0773
 2496SOL    HW2 8909   5.121   6.786   0.055  1.1437 -0.9241  2.2717
 2497SOL     OW 8910   2.224   4.118   5.370 -0.1286  0.6442 -0.3801
 2497SOL    HW1 8911   2.262   4.145   5.287 -0.5418  2.1019 -0.1308
 2497SOL    HW2 8912   2.296   4.125   5.433  0.7680 -2.4902 -0.9059
 2498SOL     OW 8913   6.317   1.475   7.585  0.4953  0.0503  0.1206
 2498SOL    HW1 8914   6.289   1.427   7.663  1.0117  0.0056  0.2817
 2498SOL    HW2 8915   6.291   1.419   7.512  0.5737 -0.2098  0.2877
 2499SOL     OW 8916   0.079   4.418   7.564  0.5105  0.2669  0.4223
 2499SOL    HW1 8917   0.091   4.511   7.548  0.8142  0.1434 -0.0782
 2499SOL    HW2 8918   0.167   4.384   7.577  0.4087  0.0232  0.4793
 2500SOL     OW 8919   0.233   7.986   6.915 -0.0363 -0.2769 -0.3756
 2500SOL    HW1 8920   0.215   7.918   6.850 -0.9109  0.9218 -1.4492
 2500SOL    HW2 8921   0.324   8.012   6.897  0.0017 -0.5227 -0.5579
 2501SOL     OW 8922   5.443   2.490   6.176  0.6098  0.4928  0.5110
 2501SOL    HW1 8923   5.353   2.458   6.174  0.1174  1.8946 -0.6099
 2501SOL    HW2 8924   5.493   2.424   6.127  0.3548 -0.6483  1.7247
 2502SOL     OW 8925   4.300   3.281   7.037 -0.1771 -0.2332 -0.6103
 2502SOL    HW1 8926   4.363   3.279   6.965  1.0177  1.2676  0.3207
 2502SOL    HW2 8927   4.216   3.297   6.995  0.8627  3.5610 -1.5728
 2503SOL     OW 8928   0.317   7.819   7.816  0.9528 -0.2817 -0.3403
 2503SOL    HW1 8929   0.310   7.740   7.868  2.7231 -1.3597 -1.6067
 2503SOL    HW2 8930   0.283   7.794   7.730  0.9544  0.5285 -0.5873
 2504SOL     OW 8931   0.900   3.073   7.240  0.5606  0.0423 -0.6848
 2504SOL    HW1 8932   0.828   3.134   7.221 -1.0023 -1.9202 -1.3813
 2504SOL    HW2 8933   0.872   3.028   7.320  2.1205  0.7975  0.3376
 2505SOL     OW 8934   0.666   0.703   7.237  0.0304  0.2734  0.1832
 2505SOL    HW1 8935   0.580   0.717   7.277 -0.8641  0.1880 -1.6175
 2505SOL    HW2 8936   0.728   0.741   7.300 -1.0348 -1.8821  2.7477
 2506SOL     OW 8937   3.586   6.053   3.377  0.0611 -0.1861 -0.0082
 2506SOL    HW1 8938   3.493   6.072   3.384 -0.1829 -0.5353 -1.8765
 2506SOL    HW2 8939   3.615   6.099   3.298  1.6456  0.4837  0.9063
 2507SOL     OW 8940   7.826   4.565   5.155 -0.7425  0.0465 -0.5393
 2507SOL    HW1 8941   7.738   4.529   5.162 -1.3657  1.7506  2.8273
 2507SOL    HW2 8942   7.816   4.641   5.098 -1.7453  0.7864  0.5654
 2508SOL     OW 8943   7.772   5.123   7.637  0.2841 -0.2162 -0.2707
 2508SOL    HW1 8944   7.727   5.208   7.640 -0.5612 -0.5951 -1.4262
 2508SOL    HW2 8945   7.778   5.103   7.543  1.0806 -1.1162 -0.0387
 2509SOL     OW 8946   0.250   5.408   3.872 -0.3683  0.1367 -0.1260
 2509SOL    HW1 8947   0.266   5.431   3.781 -1.2538 -1.2955 -0.6637
 2509SOL    HW2 8948   0.299   5.327   3.886 -0.7323  0.0121  0.4883
 2510SOL     OW 8949   0.197   0.960   3.462 -0.0430 -0.0425  0.0882
 2510SOL    HW1 8950   0.163   0.957   3.373  1.8632 -0.2109 -0.6823
 2510SOL    HW2 8951   0.200   0.868   3.490  0.9140 -0.1429 -0.3183
 2511SOL     OW 8952   2.090   0.882   6.598 -0.3795 -0.1117 -0.7045
 2511SOL    HW1 8953   2.107   0.895   6.504 -1.0269  0.5713 -0.7365
 2511SOL    HW2 8954   1.997   0.902   6.608  0.0949  1.7769  0.4127
 2512SOL     OW 8955   4.760   1.674   5.989 -0.2007  0.0135  0.2890
 2512SOL    HW1 8956   4.669   1.645   5.998  0.2935 -1.4204  0.9471
 2512SOL    HW2 8957   4.807   1.595   5.961  0.5031  1.2367 -2.3487
 2513SOL     OW 8958   7.407   4.056   6.314 -0.3082  0.7083 -0.5290
 2513SOL    HW1 8959   7.441   4.032   6.400 -1.3645  1.7750  0.2093
 2513SOL    HW2 8960   7.312   4.047   6.322 -0.3352 -1.0847 -2.2006
 2514SOL     OW 8961   0.923   6.509   5.901  0.0853 -0.4098  0.9547
 2514SOL    HW1 8962   1.006   6.531   5.943 -0.1826 -0.9758  1.7896
 2514SOL    HW2 8963   0.928   6.415   5.885 -0.9340 -0.7042  2.2382
 2515SOL     OW 8964   2.125   6.783   3.020  0.1879 -0.4380 -0.3326
 2515SOL    HW1 8965   2.135   6.782   3.115 -1.3592  0.0218 -0.1357
 2515SOL    HW2 8966   2.054   6.845   3.004  1.8882  1.2372 -1.9619
 2516SOL     OW 8967   0.658   3.216   5.770 -0.0620 -0.7477  0.1927
 2516SOL    HW1 8968   0.687   3.306   5.754 -1.0786 -0.3557  0.4672
 2516SOL    HW2 8969   0.563   3.221   5.764 -0.0961 -1.9259 -0.3598
 2517SOL     OW 8970   7.609   6.941   0.536 -0.2629 -0.3759 -0.0522
 2517SOL    HW1 8971   7.537   6.995   0.568 -1.2653 -2.3841  1.2379
 2517SOL    HW2 8972   7.681   6.960   0.596  0.1426  1.1054 -0.9308
 2518SOL     OW 8973   0.564   0.699   0.947 -0.1178  0.3894  0.2742
 2518SOL    HW1 8974   0.556   0.792   0.967 -2.4766  0.3794 -0.3256
 2518SOL    HW2 8975   0.596   0.660   1.028 -0.4227  1.5461  0.9796
 2519SOL     OW 8976   0.805   3.261   2.071  0.2233  0.4200 -0.3366
 2519SOL    HW1 8977   0.868   3.256   1.999  0.8010  1.5744  0.0691
 2519SOL    HW2 8978   0.809   3.352   2.100 -1.3492  0.4159 -0.0403
 2520SOL     OW 8979   0.497   5.847   3.904 -1.1699 -0.1329  0.0654
 2520SOL    HW1 8980   0.479   5.796   3.983  0.2875  1.3444  1.4277
 2520SOL    HW2 8981   0.548   5.922   3.935 -1.5308  1.1047 -2.1307
 2521SOL     OW 8982   6.078   0.961   5.927  0.3177  0.3597 -0.3697
 2521SOL    HW1 8983   5.987   0.976   5.953  0.1736  0.0595 -0.7063
 2521SOL    HW2 8984   6.117   0.913   6.001  0.1754  0.3880 -0.2771
 2522SOL     OW 8985   2.737   2.840   0.504  0.1463  0.0571  0.0047
 2522SOL    HW1 8986   2.804   2.875   0.445 -1.6015 -1.1590 -2.9462
 2522SOL    HW2 8987   2.760   2.747   0.513  0.2744  0.1842  1.1763
 2523SOL     OW 8988   1.003   6.502   0.250  0.5099  0.4904 -0.7048
 2523SOL    HW1 8989   1.081   6.498   0.306  1.1638 -1.2655 -1.6778
 2523SOL    HW2 8990   0.994   6.414   0.214 -0.1827  1.4118 -2.9777
 2524SOL     OW 8991   5.918   7.544   5.205 -0.1524 -0.0633 -0.4264
 2524SOL    HW1 8992   5.955   7.632   5.215 -0.4024  0.0283 -0.3001
 2524SOL    HW2 8993   5.824   7.559   5.195 -0.1479 -0.2929 -0.7992
 2525SOL     OW 8994   5.712   1.540   6.734  0.2608  0.1441 -0.4699
 2525SOL    HW1 8995   5.730   1.480   6.806 -1.0743 -0.0383 -0.2587
 2525SOL    HW2 8996   5.657   1.608   6.773  2.0851  1.8014 -0.5964
 2526SOL     OW 8997   2.666   6.910   5.186 -0.5257 -0.5527 -0.2571
 2526SOL    HW1 8998   2.710   6.928   5.269  0.3245  0.1670 -0.8420
 2526SOL    HW2 8999   2.737   6.896   5.124 -1.0287  1.7332 -1.4851
 2527SOL     OW 9000   6.068   7.365   5.423 -0.2290  0.1788 -0.0219
 2527SOL    HW1 9001   6.096   7.308   5.494 -0.0627 -0.4578 -0.5880
 2527SOL    HW2 9002   6.006   7.425   5.463 -0.6675 -0.6185  0.5121
 2528SOL     OW 9003   6.430   5.385   5.087  0.4728 -0.2622 -0.0781
 2528SOL    HW1 9004   6.442   5.295   5.054  1.7560  0.3862 -1.5364
 2528SOL    HW2 9005   6.337   5.402   5.077  0.4085 -1.0310 -0.9750
 2529SOL     OW 9006   3.900   3.066   6.635 -0.1068 -0.1538  0.2338
 2529SOL    HW1 9007   3.860   2.983   6.611 -0.9626 -0.0934  1.4000
 2529SOL    HW2 9008   3.949   3.048   6.715  1.2982  0.0442 -0.5495
 2530SOL     OW 9009   5.241   3.606   8.048 -0.3435  0.2594 -0.2500
 2530SOL    HW1 9010   5.223   3.698   8.030  0.4406  0.5707  0.5152
 2530SOL    HW2 9011   5.193   3.588   8.129 -1.1548 -0.2402 -0.8192
 2531SOL     OW 9012   1.143   7.357   4.986 -0.1030  0.6876 -0.5659
 2531SOL    HW1 9013   1.149   7.438   5.036  0.2290 -0.4042  1.2635
 2531SOL    HW2 9014   1.049   7.340   4.979 -0.2076 -0.5877  2.3132
 2532SOL     OW 9015   3.328   7.226   3.734 -0.2603 -0.0106  0.5298
 2532SOL    HW1 9016   3.399   7.277   3.696 -1.5260  0.7031 -1.0283
 2532SOL    HW2 9017   3.353   7.214   3.825  0.6725  2.4000  0.6813
 2533SOL     OW 9018   7.123   3.036   6.023  0.0329 -0.0886  0.8535
 2533SOL    HW1 9019   7.062   3.098   5.983  0.3155  0.2653  0.9602
 2533SOL    HW2 9020   7.091   3.025   6.113  0.3582  0.4229  1.0394
 2534SOL     OW 9021   3.488   2.249   7.837 -0.1704  0.1994 -0.4981
 2534SOL    HW1 9022   3.550   2.278   7.770 -1.5529  0.7852 -1.5773
 2534SOL    HW2 9023   3.411   2.221   7.788 -1.8433  2.1145  0.8627
 2535SOL     OW 9024   1.162   6.886   5.682  0.3247 -0.7229 -0.8567
 2535SOL    HW1 9025   1.102   6.869   5.610 -1.1108  0.7875 -0.0859
 2535SOL    HW2 9026   1.235   6.932   5.642 -1.7420  2.7188 -1.0846
 2536SOL     OW 9027   4.993   2.945   3.251  0.4260 -0.1465 -0.2869
 2536SOL    HW1 9028   4.963   2.919   3.338 -1.4127  1.2443 -0.4510
 2536SOL    HW2 9029   5.081   2.907   3.243 -0.9151 -3.7545  0.5503
 2537SOL     OW 9030   5.708   0.236   7.923  0.0448 -0.0060 -0.3103
 2537SOL    HW1 9031   5.783   0.290   7.947 -0.0657 -0.3421  0.8935
 2537SOL    HW2 9032   5.710   0.164   7.986  0.6683 -1.8940 -2.3768
 2538SOL     OW 9033   5.893   3.425   1.568 -0.3182 -0.1868 -0.4064
 2538SOL    HW1 9034   5.921   3.511   1.600 -0.9101  0.2150 -0.9461
 2538SOL    HW2 9035   5.961   3.401   1.505  0.2799 -0.4958  0.3375
 2539SOL     OW 9036   7.173   7.269   8.001  0.4532 -0.3423 -0.4094
 2539SOL    HW1 9037   7.244   7.332   8.004 -1.2284  1.6623  0.0499
 2539SOL    HW2 9038   7.100   7.317   7.961 -0.3852 -2.6097 -1.7731
 2540SOL     OW 9039   3.078   6.792   0.252 -0.4318  0.0713 -0.0908
 2540SOL    HW1 9040   3.115   6.718   0.300  1.3526  1.0757  0.1915
 2540SOL    HW2 9041   3.060   6.757   0.165  0.2674 -0.7503  0.0747
 2541SOL     OW 9042   0.410   6.097   6.318 -0.0519 -0.0050  0.2947
 2541SOL    HW1 9043   0.456   6.126   6.239  1.9012 -1.8957  0.6518
 2541SOL    HW2 9044   0.320   6.081   6.288  0.1372  1.2313 -1.0427
 2542SOL     OW 9045   6.092   1.168   3.036 -0.0291 -0.0743 -0.3089
 2542SOL    HW1 9046   6.012   1.148   3.084  0.0653 -0.7379 -0.4286
 2542SOL    HW2 9047   6.160   1.173   3.103  0.1469 -1.2373 -0.3962
 2543SOL     OW 9048   1.566   6.724   5.890  0.0928  0.1983 -0.4166
 2543SOL    HW1 9049   1.516   6.805   5.880 -0.2350 -0.0446 -0.7969
 2543SOL    HW2 9050   1.512   6.669   5.946  0.4628  0.3599  0.1035
 2544SOL     OW 9051   3.905   0.955   5.222 -0.8549  0.0022  0.1075
 2544SOL    HW1 9052   3.819   0.996   5.211 -0.5566  0.2863 -1.4568
 2544SOL    HW2 9053   3.945   1.002   5.295 -2.5598 -1.1261  1.8922
 2545SOL     OW 9054   1.935   6.964   4.460 -0.1270 -0.2640  0.5624
 2545SOL    HW1 9055   1.987   6.887   4.438 -0.8856 -0.2668 -1.4434
 2545SOL    HW2 9056   1.997   7.036   4.459  0.1220 -0.4799 -0.2650
 2546SOL     OW 9057   7.111   7.699   1.600 -0.2397  0.2033  0.1927
 2546SOL    HW1 9058   7.101   7.790   1.574 -1.4911 -0.0761 -0.3477
 2546SOL    HW2 9059   7.061   7.649   1.536  0.5587 -0.8932  0.3788
 2547SOL     OW 9060   1.345   2.476   6.214  0.2860  0.1047  0.7840
 2547SOL    HW1 9061   1.299   2.461   6.297  2.2680  1.7301  2.2735
 2547SOL    HW2 9062   1.408   2.404   6.208 -1.1920 -1.1481 -0.3883
 2548SOL     OW 9063   5.969   3.614   2.182 -0.1501 -0.0570 -0.0079
 2548SOL    HW1 9064   5.999   3.605   2.091  1.2342  0.4310  0.3743
 2548SOL    HW2 9065   5.880   3.649   2.174 -0.4489 -1.0221 -1.1863
 2549SOL     OW 9066   0.341   0.347   2.055 -0.2059 -0.0653  0.2522
 2549SOL    HW1 9067   0.283   0.351   2.131 -0.9431  0.5951 -0.3237
 2549SOL    HW2 9068   0.327   0.260   2.018 -0.2782 -0.1764  0.5400
 2550SOL     OW 9069   2.995   7.346   5.586 -0.3847  0.0351 -0.5294
 2550SOL    HW1 9070   2.987   7.376   5.496 -1.5912  0.4980 -0.2887
 2550SOL    HW2 9071   2.909   7.307   5.606 -0.5824  1.0829  0.8082
 2551SOL     OW 9072   4.608   0.171   4.235 -0.8276  0.0183  0.1420
 2551SOL    HW1 9073   4.691   0.125   4.248 -0.4850 -0.5202 -3.0784
 2551SOL    HW2 9074   4.541   0.107   4.260 -0.2946 -0.9365 -0.8218
 2552SOL     OW 9075   1.339   1.790   4.197  0.5266 -0.8410  0.6360
 2552SOL    HW1 9076   1.273   1.846   4.239  0.1160 -0.8410  0.0136
 2552SOL    HW2 9077   1.419   1.841   4.199  0.7566 -1.2097  2.2469
 2553SOL     OW 9078   4.827   3.496   6.954 -0.1190  0.6216  0.5236
 2553SOL    HW1 9079   4.825   3.592   6.957  0.7689  0.6354  1.0424
 2553SOL    HW2 9080   4.914   3.474   6.920 -0.4227 -0.0004  0.1249
 2554SOL     OW 9081   2.254   2.488   5.745 -0.0165  0.5805  0.4213
 2554SOL    HW1 9082   2.293   2.403   5.727 -1.4202 -0.1169  0.5665
 2554SOL    HW2 9083   2.325   2.539   5.786  1.1724 -0.0987 -0.7314
 2555SOL     OW 9084   6.422   0.918   0.291 -0.2193  0.1607  0.0777
 2555SOL    HW1 9085   6.443   0.901   0.199 -0.2429 -2.9044  0.5367
 2555SOL    HW2 9086   6.506   0.909   0.336 -0.5616 -0.5284  0.5905
 2556SOL     OW 9087   7.471   7.796   4.015 -0.4251  0.6575  0.4690
 2556SOL    HW1 9088   7.443   7.846   3.938 -0.3046 -0.5479 -0.3895
 2556SOL    HW2 9089   7.557   7.762   3.992 -1.1725 -1.2988  0.3115
 2557SOL     OW 9090   0.144   6.630   0.225  0.0066  0.5518 -0.1292
 2557SOL    HW1 9091   0.134   6.549   0.276  0.6575 -0.1321 -1.0481
 2557SOL    HW2 9092   0.216   6.677   0.268 -1.8540  1.7952  1.8120
 2558SOL     OW 9093   2.848   4.871   0.848 -0.0847  0.0654 -0.2738
 2558SOL    HW1 9094   2.784   4.816   0.894  0.6191 -0.7028 -0.1871
 2558SOL    HW2 9095   2.797   4.913   0.779 -0.4937 -1.3639 -0.8975
 2559SOL     OW 9096   6.711   7.536   0.128 -0.0778  0.5271  0.3185
 2559SOL    HW1 9097   6.737   7.628   0.118 -1.0100  0.7530 -0.1365
 2559SOL    HW2 9098   6.791   7.487   0.111  0.2966  1.2384 -0.0271
 2560SOL     OW 9099   5.129   1.594   5.848  0.4862  0.4395  0.1403
 2560SOL    HW1 9100   5.133   1.640   5.932  0.6207 -0.2964  0.5412
 2560SOL    HW2 9101   5.089   1.658   5.789 -1.7380  0.2051  1.2844
 2561SOL     OW 9102   3.288   2.057   0.197  0.5567  0.0766 -0.5721
 2561SOL    HW1 9103   3.332   2.084   0.277 -0.5156 -1.3010  0.5262
 2561SOL    HW2 9104   3.357   2.058   0.130  1.8771 -0.3930  0.7218
 2562SOL     OW 9105   0.951   5.126   7.229 -0.0557 -0.5311  0.3228
 2562SOL    HW1 9106   0.878   5.095   7.176  1.1082 -0.3665 -1.4786
 2562SOL    HW2 9107   0.951   5.069   7.306 -0.6264 -2.1091 -0.7965
 2563SOL     OW 9108   2.363   0.659   3.104 -0.6256  0.0115 -0.3028
 2563SOL    HW1 9109   2.269   0.645   3.108 -0.6535  0.4161  2.8102
 2563SOL    HW2 9110   2.376   0.749   3.131  0.7459 -0.9758  2.7324
 2564SOL     OW 9111   3.441   0.184   7.661 -0.3332  0.0424  0.0564
 2564SOL    HW1 9112   3.466   0.118   7.725 -1.0433 -1.7398 -1.4360
 2564SOL    HW2 9113   3.444   0.267   7.709  0.6115 -1.0525  1.9632
 2565SOL     OW 9114   2.877   7.215   0.578  0.1533 -0.0773  0.8696
 2565SOL    HW1 9115   2.931   7.165   0.516 -0.8831 -1.8538  1.3454
 2565SOL    HW2 9116   2.883   7.166   0.660 -2.9758 -0.9633  0.6784
 2566SOL     OW 9117   1.673   0.659   1.041  0.5794  0.2161  0.6038
 2566SOL    HW1 9118   1.664   0.641   0.947  1.8511 -0.8910  0.6609
 2566SOL    HW2 9119   1.605   0.605   1.082  1.6160 -1.2814  0.4565
 2567SOL     OW 9120   7.568   2.423   1.362 -0.2686 -0.0398 -0.1706
 2567SOL    HW1 9121   7.609   2.346   1.402  2.3895  0.9962 -0.6973
 2567SOL    HW2 9122   7.548   2.481   1.436  0.1020 -0.1541  0.0200
 2568SOL     OW 9123   5.298   5.020   2.989 -0.0968 -0.0804 -0.1409
 2568SOL    HW1 9124   5.324   5.110   2.969  0.2204  0.4328  2.2517
 2568SOL    HW2 9125   5.376   4.968   2.970  1.1438  0.7635  2.2424
 2569SOL     OW 9126   5.159   2.065   2.384  0.2545 -0.2423 -0.1134
 2569SOL    HW1 9127   5.194   2.108   2.462  0.6179 -0.2526 -0.2676
 2569SOL    HW2 9128   5.146   2.136   2.321 -0.3354 -0.1933  0.0651
 2570SOL     OW 9129   1.287   2.928   6.284  0.2038 -0.1432  0.1613
 2570SOL    HW1 9130   1.301   2.876   6.363  0.0501  0.0286  0.3038
 2570SOL    HW2 9131   1.311   2.870   6.212  1.2598  0.0110  0.3696
 2571SOL     OW 9132   2.418   4.397   3.667  0.0975  0.2006  0.1658
 2571SOL    HW1 9133   2.448   4.321   3.718  0.1163  0.4636  0.5537
 2571SOL    HW2 9134   2.497   4.449   3.653 -0.1508  0.8618  1.1306
 2572SOL     OW 9135   0.536   7.011   0.959 -0.1744  0.0965  0.5025
 2572SOL    HW1 9136   0.597   7.018   0.886  0.8866 -0.4246  1.3144
 2572SOL    HW2 9137   0.467   6.953   0.927 -0.3581  0.8284 -0.4794
 2573SOL     OW 9138   3.011   4.689   0.712  0.8203  0.7401 -0.2599
 2573SOL    HW1 9139   3.075   4.747   0.669 -1.1729  1.8366 -1.9697
 2573SOL    HW2 9140   2.958   4.748   0.765  0.4565  0.0410  0.1625
 2574SOL     OW 9141   3.856   3.735   2.056  0.0022  0.2078 -0.0806
 2574SOL    HW1 9142   3.777   3.681   2.057 -0.1879  0.4875 -0.1346
 2574SOL    HW2 9143   3.826   3.821   2.028  0.4292  0.1532 -0.7188
 2575SOL     OW 9144   0.110   2.696   7.906 -0.2127  0.6647 -0.4770
 2575SOL    HW1 9145   0.136   2.702   7.998 -0.3913  1.4426 -0.4656
 2575SOL    HW2 9146   0.127   2.784   7.871  0.2171  0.2664 -1.2868
 2576SOL     OW 9147   4.960   4.604   7.969 -0.3319 -0.1148 -0.3563
 2576SOL    HW1 9148   4.959   4.563   7.882  0.1213 -0.6387 -0.1143
 2576SOL    HW2 9149   4.992   4.536   8.028 -0.7524  0.2004  0.2487
 2577SOL     OW 9150   1.867   0.567   6.641  0.7134  0.1471 -0.1258
 2577SOL    HW1 9151   1.772   0.574   6.628  0.0482  1.1446  3.9750
 2577SOL    HW2 9152   1.888   0.476   6.620 -1.1857 -0.1847 -0.7752
 2578SOL     OW 9153   2.593   2.516   6.819  0.0900 -0.3029 -0.3734
 2578SOL    HW1 9154   2.656   2.471   6.763  1.0743 -0.0515  0.5018
 2578SOL    HW2 9155   2.540   2.567   6.759  1.6669  0.6357 -1.0325
 2579SOL     OW 9156   2.040   0.117   6.112  0.2439  0.7313  0.5736
 2579SOL    HW1 9157   2.124   0.091   6.074  0.2520 -0.6977  1.4833
 2579SOL    HW2 9158   2.050   0.100   6.206 -1.2552 -0.0429  0.6195
 2580SOL     OW 9159   3.274   7.311   7.361 -0.6833  0.0987  0.0324
 2580SOL    HW1 9160   3.230   7.304   7.445 -2.0851  2.0399 -0.4984
 2580SOL    HW2 9161   3.271   7.404   7.339  1.4124 -0.0744 -1.2644
 2581SOL     OW 9162   7.915   7.034   6.083 -0.3347  0.2473  0.0430
 2581SOL    HW1 9163   7.889   6.959   6.136 -0.2546 -1.1904 -1.8526
 2581SOL    HW2 9164   7.838   7.054   6.029  0.2279  0.3462 -0.7496
 2582SOL     OW 9165   2.117   2.218   3.451 -0.2332 -0.3147 -0.0605
 2582SOL    HW1 9166   2.083   2.129   3.462 -1.0110  0.0010  0.1675
 2582SOL    HW2 9167   2.210   2.206   3.433  0.2809 -1.1017  2.6272
 2583SOL     OW 9168   4.008   1.864   3.722 -0.1333  0.1844  0.0451
 2583SOL    HW1 9169   4.062   1.934   3.685  1.0082 -0.1792  0.9532
 2583SOL    HW2 9170   4.071   1.804   3.762 -1.1918 -0.5585  0.6454
 2584SOL     OW 9171   4.253   0.914   4.843 -0.1380 -0.1178 -0.0071
 2584SOL    HW1 9172   4.231   0.920   4.936  1.8412 -1.5888  0.6335
 2584SOL    HW2 9173   4.307   0.991   4.826 -1.1195  0.5530 -0.1613
 2585SOL     OW 9174   7.867   2.503   2.205  0.9460  0.3694 -0.8257
 2585SOL    HW1 9175   7.848   2.577   2.263 -1.3993  0.0893 -1.1516
 2585SOL    HW2 9176   7.931   2.451   2.254  0.5927  1.2232  0.5991
 2586SOL     OW 9177   3.137   5.909   3.016 -0.8805  0.3542 -1.0364
 2586SOL    HW1 9178   3.203   5.972   2.987  0.2426 -0.6844 -0.8376
 2586SOL    HW2 9179   3.131   5.846   2.944 -0.5982 -0.3416 -0.4608
 2587SOL     OW 9180   2.153   7.288   2.445 -0.1085  0.5275  0.8468
 2587SOL    HW1 9181   2.180   7.273   2.355 -2.9304  1.9350 -0.3592
 2587SOL    HW2 9182   2.065   7.251   2.451  0.0657  0.3080  3.1179
 2588SOL     OW 9183   1.789   5.949   4.437  0.3584 -0.2116 -0.0178
 2588SOL    HW1 9184   1.772   6.042   4.425  2.4439  0.5944  2.3379
 2588SOL    HW2 9185   1.735   5.906   4.371 -0.9986  2.6123 -0.9180
 2589SOL     OW 9186   3.693   5.764   1.475 -0.1005 -0.0165  0.2599
 2589SOL    HW1 9187   3.678   5.706   1.400 -1.2031 -0.3445  0.7281
 2589SOL    HW2 9188   3.678   5.852   1.440  1.4088  0.0062 -0.4071
 2590SOL     OW 9189   5.895   1.355   0.074  0.3008 -0.1251  0.2584
 2590SOL    HW1 9190   5.855   1.339   0.160 -2.0866 -0.0630 -0.7628
 2590SOL    HW2 9191   5.946   1.276   0.057 -0.3267 -0.7487  1.1527
 2591SOL     OW 9192   0.519   2.072   3.603 -0.4630  0.3128  0.2776
 2591SOL    HW1 9193   0.469   2.001   3.644  0.6011  1.0309  3.0175
 2591SOL    HW2 9194   0.463   2.150   3.613  0.2095  0.6784  1.2645
 2592SOL     OW 9195   4.579   7.794   1.158  0.2046 -0.3379 -0.2303
 2592SOL    HW1 9196   4.559   7.885   1.135  0.2192 -0.3903 -0.4622
 2592SOL    HW2 9197   4.657   7.774   1.106  1.0034 -0.0584  0.8458
 2593SOL     OW 9198   4.822   1.202   5.028 -0.0325  0.3629 -0.1209
 2593SOL    HW1 9199   4.740   1.157   5.010  0.4061 -0.7742  0.6152
 2593SOL    HW2 9200   4.796   1.289   5.059 -0.9301  0.2565 -0.5594
 2594SOL     OW 9201   6.677   3.235   3.005 -0.0605  0.5637  0.1129
 2594SOL    HW1 9202   6.748   3.257   3.066 -0.9108  0.7533  1.0589
 2594SOL    HW2 9203   6.602   3.217   3.062 -0.4292 -0.9553 -0.8188
 2595SOL     OW 9204   0.988   7.906   7.033  0.3398 -0.2215 -0.1373
 2595SOL    HW1 9205   0.926   7.975   7.008 -1.7080 -0.8799  2.6617
 2595SOL    HW2 9206   0.959   7.829   6.983 -1.1448 -0.5044  1.0960
 2596SOL     OW 9207   6.233   7.128   2.017 -0.1487  0.2830  0.1132
 2596SOL    HW1 9208   6.142   7.120   1.990  0.5040 -2.3028 -1.7252
 2596SOL    HW2 9209   6.248   7.053   2.075  1.4066 -0.9991 -1.7986
 2597SOL     OW 9210   5.005   1.081   0.850 -0.2840  0.2472 -0.1661
 2597SOL    HW1 9211   4.944   1.008   0.841 -1.6411  1.4206 -1.0039
 2597SOL    HW2 9212   5.057   1.059   0.927 -2.9101 -0.0342  1.6861
 2598SOL     OW 9213   3.010   1.655   0.273 -0.1201 -0.0707  0.4323
 2598SOL    HW1 9214   2.994   1.660   0.179  0.8320 -0.6967  0.2198
 2598SOL    HW2 9215   3.026   1.562   0.290  0.5682  0.1476  1.0513
 2599SOL     OW 9216   2.559   2.683   4.006 -0.2651 -0.1183 -0.0632
 2599SOL    HW1 9217   2.546   2.592   4.035 -0.4369 -0.6331 -1.6724
 2599SOL    HW2 9218   2.556   2.734   4.087 -0.0068 -1.5567  0.8958
 2600SOL     OW 9219   4.968   7.131   6.929  0.5753 -0.0390  0.2408
 2600SOL    HW1 9220   5.004   7.079   6.857 -0.1290  0.8556 -0.8016
 2600SOL    HW2 9221   5.025   7.113   7.003 -0.2921 -3.2130  0.2955
 2601SOL     OW 9222   5.304   2.951   7.146  0.2568 -0.2293 -0.3860
 2601SOL    HW1 9223   5.265   2.947   7.059 -1.4421 -3.3485  0.3675
 2601SOL    HW2 9224   5.396   2.928   7.132  0.1646 -0.0199 -1.4037
 2602SOL     OW 9225   6.460   0.972   5.961 -0.3415  0.1792 -0.2943
 2602SOL    HW1 9226   6.419   0.987   6.046  1.2690 -1.0475  0.7756
 2602SOL    HW2 9227   6.552   0.995   5.975 -0.1280  0.3845 -1.8493
 2603SOL     OW 9228   5.135   6.948   1.977  0.3922 -0.4249  0.1104
 2603SOL    HW1 9229   5.051   6.921   1.940 -0.9152 -0.0332  2.5974
 2603SOL    HW2 9230   5.151   6.885   2.047  0.5187  1.3612  1.7660
 2604SOL     OW 9231   0.267   7.203   5.121 -0.4590 -0.8728  0.3020
 2604SOL    HW1 9232   0.320   7.282   5.110 -0.0067 -1.0312  1.2503
 2604SOL    HW2 9233   0.297   7.166   5.204 -1.7166 -1.2380  0.6097
 2605SOL     OW 9234   3.186   7.200   5.189 -0.4157 -0.2397  0.1916
 2605SOL    HW1 9235   3.146   7.156   5.113 -1.9155 -0.8062  1.2584
 2605SOL    HW2 9236   3.151   7.289   5.185 -1.1274 -0.4940  0.6487
 2606SOL     OW 9237   4.741   3.542   7.883  0.4895 -0.2921 -0.2875
 2606SOL    HW1 9238   4.679   3.545   7.811  0.1521  0.3301  0.0210
 2606SOL    HW2 9239   4.801   3.615   7.867  0.1199  0.1503  0.3138
 2607SOL     OW 9240   0.383   6.808   6.771  0.7757  0.3194  0.5744
 2607SOL    HW1 9241   0.453   6.865   6.803  1.8084 -0.5527 -0.0698
 2607SOL    HW2 9242   0.402   6.799   6.677  0.5796 -1.0136  0.6567
 2608SOL     OW 9243   6.893   2.458   7.060  0.3318 -0.5547  0.5248
 2608SOL    HW1 9244   6.888   2.508   6.979 -1.1752 -0.7503  0.4662
 2608SOL    HW2 9245   6.879   2.523   7.129  1.2702 -0.4434  0.6181
 2609SOL     OW 9246   6.389   2.164   0.312 -0.0427  0.0216 -0.6104
 2609SOL    HW1 9247   6.450   2.237   0.315 -1.6857  1.4435  0.4506
 2609SOL    HW2 9248   6.338   2.179   0.232 -1.7624  1.3099  0.6485
 2610SOL     OW 9249   7.245   3.506   7.536  0.0366 -0.0196 -0.5472
 2610SOL    HW1 9250   7.196   3.583   7.567  0.5266  0.1644 -0.2288
 2610SOL    HW2 9251   7.177   3.445   7.508 -0.3873  0.1709  0.0451
 2611SOL     OW 9252   6.045   6.188   6.847  0.0266 -0.6476  0.1348
 2611SOL    HW1 9253   6.126   6.206   6.799 -0.3218  1.6347  0.2838
 2611SOL    HW2 9254   6.074   6.156   6.933  0.7164 -1.4816 -0.4012
 2612SOL     OW 9255   3.895   1.314   2.750 -0.2270  0.2198  0.8520
 2612SOL    HW1 9256   3.927   1.224   2.739  1.2008  0.8874 -0.8632
 2612SOL    HW2 9257   3.806   1.311   2.715 -0.1964 -0.5211  0.8091
 2613SOL     OW 9258   5.749   6.163   4.398 -0.2576  0.5754  0.0450
 2613SOL    HW1 9259   5.669   6.175   4.449 -0.9240  2.3899 -1.3026
 2613SOL    HW2 9260   5.723   6.183   4.308  1.5869  0.5992 -0.5251
 2614SOL     OW 9261   5.445   2.548   5.846 -0.1022  0.1901 -0.0752
 2614SOL    HW1 9262   5.369   2.546   5.904 -0.9557 -0.4136 -1.1743
 2614SOL    HW2 9263   5.455   2.458   5.815 -1.2624  0.8723 -2.7837
 2615SOL     OW 9264   6.515   2.406   2.490 -0.1413  0.0937 -0.0939
 2615SOL    HW1 9265   6.529   2.389   2.396 -1.2952  1.7499 -0.6056
 2615SOL    HW2 9266   6.506   2.501   2.496  0.2905  0.0429  1.7718
 2616SOL     OW 9267   5.129   6.718   7.721  0.6111  0.0174 -0.3480
 2616SOL    HW1 9268   5.161   6.782   7.784  0.6375 -1.8753  1.7122
 2616SOL    HW2 9269   5.057   6.761   7.676  1.5442  1.9473 -0.0779
 2617SOL     OW 9270   3.124   6.301   7.873  0.1318  0.1704  0.1869
 2617SOL    HW1 9271   3.085   6.380   7.838 -1.7781 -1.0442 -0.5906
 2617SOL    HW2 9272   3.166   6.328   7.955 -1.3761  1.7796  0.4644
 2618SOL     OW 9273   1.746   7.478   6.903  0.6045  0.7370 -0.0600
 2618SOL    HW1 9274   1.703   7.550   6.949  1.9737  1.3769  0.2731
 2618SOL    HW2 9275   1.675   7.431   6.859 -0.2579  2.6603 -0.8217
 2619SOL     OW 9276   6.540   5.808   4.205 -0.1321 -0.1319  0.2902
 2619SOL    HW1 9277   6.454   5.848   4.218 -2.2489 -3.5835 -1.6587
 2619SOL    HW2 9278   6.537   5.728   4.258  1.6896 -0.5928 -0.2451
 2620SOL     OW 9279   1.652   3.615   4.320  0.3529  0.4979 -0.0707
 2620SOL    HW1 9280   1.610   3.690   4.277  1.2898  0.9383 -0.2335
 2620SOL    HW2 9281   1.681   3.648   4.405  0.2145  0.1491  0.1139
 2621SOL     OW 9282   3.407   2.152   3.650  0.7482 -0.5831  0.2417
 2621SOL    HW1 9283   3.371   2.231   3.691 -0.9440 -1.2324  0.0965
 2621SOL    HW2 9284   3.420   2.092   3.724 -0.4050 -1.0452  0.0944
 2622SOL     OW 9285   4.668   3.589   0.097  0.0654  0.3114 -0.4770
 2622SOL    HW1 9286   4.706   3.504   0.121 -1.9833 -1.0243 -1.6613
 2622SOL    HW2 9287   4.699   3.604   0.008 -2.6809 -1.2381 -1.8122
 2623SOL     OW 9288   3.397   2.315   2.516  0.1990  0.3195  0.3026
 2623SOL    HW1 9289   3.344   2.300   2.594 -1.6713  1.8521 -0.6023
 2623SOL    HW2 9290   3.482   2.345   2.550  0.6501 -2.3202  1.7690
 2624SOL     OW 9291   6.523   0.706   6.914 -0.3801  0.3103  0.1680
 2624SOL    HW1 9292   6.580   0.718   6.838  0.2144  0.5603  0.6417
 2624SOL    HW2 9293   6.504   0.612   6.915 -4.6016  0.8276 -3.2438
 2625SOL     OW 9294   0.447   3.255   4.176 -0.6803 -0.3617 -0.1149
 2625SOL    HW1 9295   0.435   3.166   4.209 -0.7130  0.1663  1.3782
 2625SOL    HW2 9296   0.372   3.303   4.210 -0.5977  0.2739 -0.8080
 2626SOL     OW 9297   6.183   3.594   1.425 -0.0391  0.5121  0.4649
 2626SOL    HW1 9298   6.120   3.666   1.424 -1.1494 -0.3816 -1.8930
 2626SOL    HW2 9299   6.250   3.621   1.362 -0.1775 -0.2439 -0.0212
 2627SOL     OW 9300   3.444   2.956   2.799 -0.5039 -0.7023 -0.2532
 2627SOL    HW1 9301   3.387   3.024   2.763  0.1352  0.3916  0.7348
 2627SOL    HW2 9302   3.483   2.914   2.722 -2.2428 -1.1606 -0.9285
 2628SOL     OW 9303   4.744   5.287   7.260 -0.6314  0.0469  0.0354
 2628SOL    HW1 9304   4.661   5.331   7.276 -1.8005 -1.5792 -1.2953
 2628SOL    HW2 9305   4.768   5.250   7.345 -0.9457  1.0299  0.5640
 2629SOL     OW 9306   4.009   7.533   2.392  0.1242  0.0247  0.0294
 2629SOL    HW1 9307   3.961   7.486   2.461 -0.4782  0.2296 -0.2438
 2629SOL    HW2 9308   4.101   7.516   2.411 -0.0198  0.3387  1.0703
 2630SOL     OW 9309   1.888   6.191   3.104 -0.0320  0.1531  0.0825
 2630SOL    HW1 9310   1.836   6.230   3.175  0.3842  0.1177  0.4158
 2630SOL    HW2 9311   1.899   6.100   3.131  0.8491  0.3453  0.4044
 2631SOL     OW 9312   7.707   4.752   1.316 -0.5454 -0.0021 -0.0103
 2631SOL    HW1 9313   7.767   4.740   1.390 -1.0317 -0.4813  0.3110
 2631SOL    HW2 9314   7.760   4.798   1.250  0.6274 -1.6592 -0.3046
 2632SOL     OW 9315   2.103   3.070   4.909 -0.2838  0.1578  0.4817
 2632SOL    HW1 9316   2.166   3.031   4.848 -0.1325 -0.1103  0.8028
 2632SOL    HW2 9317   2.099   3.008   4.982 -0.4175  0.4988  0.7708
 2633SOL     OW 9318   6.075   0.933   1.797 -0.0789  0.2531 -0.0435
 2633SOL    HW1 9319   6.081   0.978   1.881  2.4422 -1.2581  0.7009
 2633SOL    HW2 9320   6.059   0.841   1.819  0.5551 -0.1562 -1.1806
 2634SOL     OW 9321   1.317   0.440   0.286  0.2887  0.0166  0.2968
 2634SOL    HW1 9322   1.320   0.526   0.244  0.9841 -0.1020  0.0907
 2634SOL    HW2 9323   1.240   0.444   0.343 -0.7373  0.1498 -1.0439
 2635SOL     OW 9324   4.963   0.985   2.400 -0.0039 -0.2165  0.2731
 2635SOL    HW1 9325   4.893   0.923   2.421 -2.0870  0.9565 -2.5335
 2635SOL    HW2 9326   4.926   1.070   2.422 -0.6051  0.6474 -3.4385
 2636SOL     OW 9327   0.646   1.395   7.822 -0.6213  0.6936 -0.1993
 2636SOL    HW1 9328   0.634   1.479   7.777 -1.1113 -1.2776 -4.1260
 2636SOL    HW2 9329   0.579   1.396   7.891 -1.3622  3.0511 -0.8432
 2637SOL     OW 9330   7.735   5.946   6.817  0.6289 -0.8170  0.1325
 2637SOL    HW1 9331   7.719   5.883   6.746  0.3214 -0.2154 -0.3434
 2637SOL    HW2 9332   7.712   5.899   6.897 -1.8301 -0.5943 -0.3707
 2638SOL     OW 9333   0.458   3.792   6.601 -0.1952  0.5581  0.3472
 2638SOL    HW1 9334   0.515   3.838   6.662  2.0823  0.0088 -1.2507
 2638SOL    HW2 9335   0.458   3.846   6.522  1.4715 -1.3815 -1.0967
 2639SOL     OW 9336   7.786   2.830   7.760 -0.0122  0.3869 -0.5342
 2639SOL    HW1 9337   7.832   2.747   7.769 -2.0806 -1.0582 -2.3053
 2639SOL    HW2 9338   7.856   2.896   7.759  1.7546 -1.3819 -0.0784
 2640SOL     OW 9339   4.750   4.254   0.239  0.2011 -0.2049 -0.2534
 2640SOL    HW1 9340   4.742   4.269   0.145 -1.1530 -0.6518 -0.2314
 2640SOL    HW2 9341   4.794   4.170   0.246  0.0302 -0.3159 -0.4937
 2641SOL     OW 9342   4.007   7.675   5.398  0.0092  0.0980  0.1618
 2641SOL    HW1 9343   3.947   7.617   5.446 -1.0945  0.3447 -0.8695
 2641SOL    HW2 9344   3.959   7.698   5.318  0.3523  2.5434  0.5874
 2642SOL     OW 9345   7.680   2.238   7.314 -0.6065  0.4539  0.1037
 2642SOL    HW1 9346   7.735   2.311   7.342 -1.9675  1.5600  0.0253
 2642SOL    HW2 9347   7.593   2.277   7.303 -1.2551 -1.0813 -0.4541
 2643SOL     OW 9348   1.776   7.342   2.233 -0.0582 -0.1061 -0.1681
 2643SOL    HW1 9349   1.750   7.433   2.225  1.2778  0.1554 -1.9005
 2643SOL    HW2 9350   1.859   7.335   2.187  1.3614 -1.6009  2.3484
 2644SOL     OW 9351   7.503   5.585   2.783 -0.1540  0.1019  0.0550
 2644SOL    HW1 9352   7.467   5.499   2.759  0.1558  0.3057 -1.1976
 2644SOL    HW2 9353   7.530   5.574   2.874 -1.4511 -0.6868  0.3738
 2645SOL     OW 9354   0.762   6.626   0.669  0.3379  0.5217  0.0462
 2645SOL    HW1 9355   0.711   6.685   0.614 -1.7505  0.2072  1.5382
 2645SOL    HW2 9356   0.805   6.683   0.733 -0.1323  0.6067  0.2926
 2646SOL     OW 9357   7.429   0.933   0.435  0.2218  0.0619 -0.3747
 2646SOL    HW1 9358   7.506   0.880   0.414 -0.3420 -0.9115 -0.0535
 2646SOL    HW2 9359   7.461   1.023   0.435  1.2823 -0.3015 -0.5903
 2647SOL     OW 9360   2.696   6.142   6.469  0.3981 -0.0313  0.0524
 2647SOL    HW1 9361   2.640   6.167   6.542  0.5864 -0.6308  0.4083
 2647SOL    HW2 9362   2.702   6.221   6.415 -0.1402  0.2695  0.4249
 2648SOL     OW 9363   4.527   2.224   1.419 -0.1470  0.0535  0.6002
 2648SOL    HW1 9364   4.464   2.285   1.458  0.8097  1.6521 -0.2742
 2648SOL    HW2 9365   4.480   2.186   1.344 -0.7258 -0.2596  1.1120
 2649SOL     OW 9366   1.610   7.018   8.026  0.3275 -0.1420  0.1407
 2649SOL    HW1 9367   1.683   6.958   8.044  0.6829  0.5826  1.2286
 2649SOL    HW2 9368   1.550   7.005   8.099 -0.8415 -0.9869 -0.9217
 2650SOL     OW 9369   5.971   8.019   4.193  0.3895 -0.1715 -0.8262
 2650SOL    HW1 9370   6.053   8.067   4.202  1.3239 -1.8153 -0.1698
 2650SOL    HW2 9371   5.948   8.027   4.100  0.1225  2.0864 -0.6063
 2651SOL     OW 9372   6.862   4.258   0.070 -0.1630 -0.0056 -0.4593
 2651SOL    HW1 9373   6.799   4.305   0.125 -0.8746 -0.8961 -0.4804
 2651SOL    HW2 9374   6.945   4.268   0.116 -0.3513  0.9963 -0.3057
 2652SOL     OW 9375   1.758   0.005   6.976  0.1623 -0.7481  0.4769
 2652SOL    HW1 9376   1.842   0.036   6.942  0.0657 -0.1012  0.8161
 2652SOL    HW2 9377   1.702  -0.003   6.899 -0.0800  0.7775  0.4697
 2653SOL     OW 9378   4.877   7.748   6.647  0.4927  0.0815  0.3768
 2653SOL    HW1 9379   4.924   7.790   6.574  1.2672 -0.1645  0.7191
 2653SOL    HW2 9380   4.946   7.729   6.711  0.5864 -3.4591 -0.5441
 2654SOL     OW 9381   2.544   0.682   4.697  0.3068 -0.2541 -0.7732
 2654SOL    HW1 9382   2.574   0.763   4.740 -0.4871 -0.4330  0.1511
 2654SOL    HW2 9383   2.558   0.699   4.604  0.8949  0.6391 -0.5459
 2655SOL     OW 9384   7.428   2.100   5.804 -0.2639  0.1297  0.0477
 2655SOL    HW1 9385   7.337   2.128   5.816 -0.1030  1.7625 -1.9594
 2655SOL    HW2 9386   7.432   2.070   5.713  0.6764 -2.3066  0.8256
 2656SOL     OW 9387   1.885   0.735   3.415  0.0401 -0.0238 -0.0743
 2656SOL    HW1 9388   1.919   0.750   3.503 -0.1494 -0.0139 -0.0015
 2656SOL    HW2 9389   1.869   0.823   3.380  0.3925 -0.0219 -0.2282
 2657SOL     OW 9390   2.418   4.734   7.263 -0.2392 -0.4821 -0.2869
 2657SOL    HW1 9391   2.392   4.650   7.226  0.5393 -1.0510  0.4092
 2657SOL    HW2 9392   2.514   4.734   7.258 -0.1683 -0.1072  0.6943
 2658SOL     OW 9393   0.230   1.518   6.839  0.3877  0.4281 -0.6931
 2658SOL    HW1 9394   0.164   1.512   6.771  1.7272 -3.1691 -1.9101
 2658SOL    HW2 9395   0.209   1.447   6.899  2.3946  0.0269 -0.4099
 2659SOL     OW 9396   0.012   0.774   5.679 -0.0118  0.1715 -0.0935
 2659SOL    HW1 9397  -0.082   0.792   5.680 -0.0092  0.1548  1.0661
 2659SOL    HW2 9398   0.022   0.693   5.729  0.5151 -0.4309 -1.1283
 2660SOL     OW 9399   0.415   3.863   1.413 -0.5863 -0.7680  0.7416
 2660SOL    HW1 9400   0.478   3.934   1.419 -0.1536 -1.0591 -0.2047
 2660SOL    HW2 9401   0.439   3.815   1.333 -2.3112 -0.5744  0.0423
 2661SOL     OW 9402   0.799   2.138   1.268  0.2429 -0.5261 -0.1251
 2661SOL    HW1 9403   0.819   2.048   1.293  0.8951 -0.5359 -0.6769
 2661SOL    HW2 9404   0.716   2.157   1.313  1.3307 -0.5477  2.0488
 2662SOL     OW 9405   6.757   2.209   7.450 -0.2945  0.1575  0.1822
 2662SOL    HW1 9406   6.697   2.148   7.407  0.6920 -2.0978  1.8207
 2662SOL    HW2 9407   6.841   2.194   7.408 -0.4934  2.2701 -1.1075
 2663SOL     OW 9408   3.239   5.437   1.478 -0.5883 -0.5217  0.2579
 2663SOL    HW1 9409   3.264   5.417   1.388  0.0797  1.5838 -0.0768
 2663SOL    HW2 9410   3.322   5.458   1.522 -1.1780  1.5280  0.4969
 2664SOL     OW 9411   7.793   3.142   4.155 -0.1568  0.1519 -0.6360
 2664SOL    HW1 9412   7.863   3.172   4.212 -0.2563 -0.5453 -0.1287
 2664SOL    HW2 9413   7.735   3.218   4.146  0.2314  0.4813 -0.3923
 2665SOL     OW 9414   7.579   6.679   2.115  0.3544 -0.0130  0.3089
 2665SOL    HW1 9415   7.622   6.596   2.133 -0.6134 -0.6515 -0.2765
 2665SOL    HW2 9416   7.650   6.744   2.119  1.3722 -1.0339 -0.6083
 2666SOL     OW 9417   2.534   6.902   4.652 -0.0449 -0.2846  0.3782
 2666SOL    HW1 9418   2.548   6.846   4.728  2.0309  1.9729  1.8161
 2666SOL    HW2 9419   2.439   6.906   4.642 -0.3107 -3.7649  0.2721
 2667SOL     OW 9420   2.980   3.892   5.023  0.3334 -0.2976  0.0754
 2667SOL    HW1 9421   2.970   3.932   4.936 -0.2857  1.9638  1.1277
 2667SOL    HW2 9422   3.060   3.931   5.058  0.2799 -0.7820  0.7502
 2668SOL     OW 9423   0.138   3.362   7.813 -0.4467 -0.4606  0.5657
 2668SOL    HW1 9424   0.060   3.403   7.850  0.6660  0.3884  2.0623
 2668SOL    HW2 9425   0.207   3.426   7.827  0.9323 -2.0070  1.0519
 2669SOL     OW 9426   2.947   1.766   5.204  0.3667  0.3079 -0.2174
 2669SOL    HW1 9427   2.988   1.821   5.137  2.9567 -2.0906 -0.8044
 2669SOL    HW2 9428   2.984   1.798   5.287  0.6496  0.4495 -0.3977
 2670SOL     OW 9429   0.657   6.954   7.419 -0.0574  0.2641  0.1676
 2670SOL    HW1 9430   0.665   6.870   7.463 -0.3962 -0.6180 -1.3880
 2670SOL    HW2 9431   0.575   6.949   7.372 -0.6918  1.9596  0.9921
 2671SOL     OW 9432   1.749   4.301   6.792 -0.1520 -0.5396  0.0486
 2671SOL    HW1 9433   1.819   4.320   6.729  2.0934 -0.4283  2.3840
 2671SOL    HW2 9434   1.793   4.250   6.860 -2.4121 -0.4850  1.6400
 2672SOL     OW 9435   6.682   5.835   6.263 -0.0209 -0.2722 -0.4771
 2672SOL    HW1 9436   6.776   5.818   6.272  0.1414  0.7806 -0.0087
 2672SOL    HW2 9437   6.675   5.882   6.180  0.3068  2.3358  0.8514
 2673SOL     OW 9438   5.782   6.924   5.019  0.4272  0.2667  0.0644
 2673SOL    HW1 9439   5.742   7.009   5.035  0.5927  0.1917  0.8888
 2673SOL    HW2 9440   5.727   6.862   5.067 -0.2618 -0.2333 -1.2955
 2674SOL     OW 9441   6.634   6.345   3.343 -0.5282 -0.6219 -0.0375
 2674SOL    HW1 9442   6.647   6.257   3.308 -1.2421  0.0274 -2.0885
 2674SOL    HW2 9443   6.555   6.338   3.396 -0.6077 -1.2103 -0.2210
 2675SOL     OW 9444   7.051   3.666   4.701  0.1807 -0.2353 -0.1163
 2675SOL    HW1 9445   7.092   3.612   4.769  2.0854  0.5764 -0.5557
 2675SOL    HW2 9446   7.072   3.756   4.726  1.7685  0.0538 -2.2285
 2676SOL     OW 9447   5.728   7.555   1.892  0.1157 -0.1052  0.1996
 2676SOL    HW1 9448   5.695   7.532   1.979  0.9282 -0.1505  0.5000
 2676SOL    HW2 9449   5.703   7.481   1.837  2.5002 -1.6747  1.1004
 2677SOL     OW 9450   6.178   2.664   4.424  1.0152  0.3185 -0.3689
 2677SOL    HW1 9451   6.226   2.730   4.474  0.8939 -0.2015  0.4563
 2677SOL    HW2 9452   6.235   2.587   4.425  0.0581 -0.4206  0.9243
 2678SOL     OW 9453   1.187   5.658   1.234 -0.6801 -0.3340  0.1988
 2678SOL    HW1 9454   1.165   5.688   1.146  2.0309 -0.9407 -0.7654
 2678SOL    HW2 9455   1.249   5.724   1.267 -0.7053 -0.7756  1.1594
 2679SOL     OW 9456   3.206   1.032   6.007 -0.2048  0.4096  0.2268
 2679SOL    HW1 9457   3.212   1.121   5.972 -0.4971  0.6377  0.7472
 2679SOL    HW2 9458   3.270   1.029   6.078  0.3695 -0.0458 -0.3021
 2680SOL     OW 9459   5.781   4.120   3.262  0.6760 -0.0961  0.3738
 2680SOL    HW1 9460   5.687   4.103   3.269 -0.0627  3.3807  1.1529
 2680SOL    HW2 9461   5.805   4.088   3.176 -1.5886  0.1237 -0.4161
 2681SOL     OW 9462   6.761   7.068   5.916 -0.1849  0.2074 -0.1832
 2681SOL    HW1 9463   6.714   7.017   5.850  1.2753 -1.9256  0.3025
 2681SOL    HW2 9464   6.753   7.015   5.996  0.6548  1.1980  0.5880
 2682SOL     OW 9465   6.145   3.492   3.550  0.0522  0.3989 -0.4378
 2682SOL    HW1 9466   6.084   3.432   3.594  2.0443  0.4979  2.7669
 2682SOL    HW2 9467   6.222   3.438   3.531  0.9996  1.3798  0.4481
 2683SOL     OW 9468   1.452   6.138   1.619  0.0241  0.1563 -0.2200
 2683SOL    HW1 9469   1.536   6.173   1.650 -0.1188  0.4282 -0.1356
 2683SOL    HW2 9470   1.475   6.061   1.568  0.2747 -0.3045  0.5619
 2684SOL     OW 9471   0.215   1.295   7.786 -0.4666 -0.0637 -0.5453
 2684SOL    HW1 9472   0.177   1.209   7.771 -0.4193 -0.1668 -0.0934
 2684SOL    HW2 9473   0.141   1.350   7.810 -0.4856  0.0043 -0.7576
 2685SOL     OW 9474   0.458   1.559   4.639  0.1858  0.1003 -0.5404
 2685SOL    HW1 9475   0.456   1.651   4.667 -2.5887 -0.7171  2.6482
 2685SOL    HW2 9476   0.373   1.545   4.598  0.8189 -0.9664 -1.5564
 2686SOL     OW 9477   4.046   7.631   2.011 -0.3921 -0.0366 -0.1918
 2686SOL    HW1 9478   3.966   7.683   2.017  0.3133  1.1345 -0.6184
 2686SOL    HW2 9479   4.107   7.673   2.072  0.1731 -0.3885 -0.5076
 2687SOL     OW 9480   5.419   1.603   6.488 -0.4042 -0.6316  0.2948
 2687SOL    HW1 9481   5.488   1.642   6.435  0.5705 -1.0722  1.1978
 2687SOL    HW2 9482   5.340   1.649   6.462  0.6062  1.5659  0.9067
 2688SOL     OW 9483   8.019   3.702   6.056  0.0031 -0.2384 -0.5122
 2688SOL    HW1 9484   8.078   3.628   6.068  1.1785  0.8490  0.7475
 2688SOL    HW2 9485   7.956   3.695   6.128  0.0614 -0.0610 -0.4433
 2689SOL     OW 9486   5.200   2.635   7.300  0.2730 -0.0997  0.4672
 2689SOL    HW1 9487   5.213   2.559   7.357 -1.1597 -1.5415 -1.0119
 2689SOL    HW2 9488   5.280   2.640   7.248  0.9003  0.2125  1.4335
 2690SOL     OW 9489   7.621   6.508   5.381  0.3609  0.6580 -0.2474
 2690SOL    HW1 9490   7.582   6.595   5.375 -2.3206 -0.4515 -0.2622
 2690SOL    HW2 9491   7.639   6.496   5.474  1.8356  1.6074 -0.3734
 2691SOL     OW 9492   1.865   7.999   0.820 -0.1026 -0.3077 -0.3366
 2691SOL    HW1 9493   1.922   7.937   0.774 -1.7734 -1.5912 -0.7900
 2691SOL    HW2 9494   1.919   8.033   0.892  1.9572  0.3374 -2.1053
 2692SOL     OW 9495   3.737   5.682   7.700  0.5431  0.3468  0.0708
 2692SOL    HW1 9496   3.777   5.685   7.787  0.4110 -1.1316  0.2063
 2692SOL    HW2 9497   3.654   5.730   7.710  1.6112  2.3085  0.1070
 2693SOL     OW 9498   2.575   7.404   0.818  0.0745  0.3491  0.5732
 2693SOL    HW1 9499   2.650   7.354   0.849  0.8953  1.3175  0.1977
 2693SOL    HW2 9500   2.508   7.391   0.885  0.3381 -1.0496  0.5959
 2694SOL     OW 9501   7.538   4.315   1.824  0.6459  0.2480 -0.2994
 2694SOL    HW1 9502   7.455   4.329   1.870  0.5621  0.6476 -0.5633
 2694SOL    HW2 9503   7.513   4.317   1.731  0.9153  0.1181 -0.3747
 2695SOL     OW 9504   6.084   2.724   2.561 -0.0347  0.5316  0.0707
 2695SOL    HW1 9505   6.101   2.632   2.539  0.6590  0.7627 -0.4136
 2695SOL    HW2 9506   6.101   2.730   2.655  1.3598  0.4639 -0.1555
 2696SOL     OW 9507   7.731   7.929   4.023 -0.4431  0.3911 -0.2888
 2696SOL    HW1 9508   7.781   7.928   3.942 -0.7273  0.6017 -0.4717
 2696SOL    HW2 9509   7.782   7.876   4.084  0.3172  1.1150 -0.2805
 2697SOL     OW 9510   5.604   4.327   0.714  0.4395  0.1211  0.2190
 2697SOL    HW1 9511   5.660   4.328   0.637  0.3674  0.1200  0.1658
 2697SOL    HW2 9512   5.555   4.409   0.709 -0.9168 -0.7063 -0.7496
 2698SOL     OW 9513   1.815   4.517   2.492 -0.5854 -0.3097 -0.2649
 2698SOL    HW1 9514   1.769   4.473   2.564  0.2615  1.6827  1.5837
 2698SOL    HW2 9515   1.906   4.524   2.522  0.2717 -1.1728 -2.4178
 2699SOL     OW 9516   3.566   4.163   4.345  0.2860  0.3080  0.2328
 2699SOL    HW1 9517   3.518   4.164   4.428 -1.8510 -0.8124 -0.9038
 2699SOL    HW2 9518   3.630   4.092   4.356 -0.9480 -0.8055  0.4484
 2700SOL     OW 9519   6.095   4.937   7.827  0.3116  0.1011  0.8227
 2700SOL    HW1 9520   6.105   5.025   7.791  1.0186 -0.5674 -0.7410
 2700SOL    HW2 9521   6.001   4.920   7.826  0.3087  0.0917 -0.8503
 2701SOL     OW 9522   4.894   1.933   5.472 -0.0140 -0.8629 -0.0043
 2701SOL    HW1 9523   4.875   1.839   5.467 -1.0939 -0.6626 -0.0344
 2701SOL    HW2 9524   4.817   1.970   5.514  0.4398  0.0045  0.0766
 2702SOL     OW 9525   4.157   0.879   6.136  0.6249 -0.8397 -0.2722
 2702SOL    HW1 9526   4.167   0.911   6.226 -0.1132 -1.5564  0.0874
 2702SOL    HW2 9527   4.170   0.956   6.081  1.5142 -0.4779  0.4255
 2703SOL     OW 9528   0.120   0.830   7.542 -0.0159 -0.0598  0.5788
 2703SOL    HW1 9529   0.150   0.750   7.497 -0.3412  0.0256  0.2072
 2703SOL    HW2 9530   0.186   0.896   7.519  0.5172 -0.3357  1.2782
 2704SOL     OW 9531   7.260   7.038   2.885 -0.3894  0.7224 -0.2383
 2704SOL    HW1 9532   7.290   7.099   2.953 -1.0279 -0.5185  1.1999
 2704SOL    HW2 9533   7.323   6.967   2.887 -1.1559  0.0401 -0.0036
 2705SOL     OW 9534   0.169   1.088   4.669 -0.1128 -0.1317  0.0209
 2705SOL    HW1 9535   0.138   1.136   4.746  0.0571  1.0874 -0.6546
 2705SOL    HW2 9536   0.221   1.016   4.705 -0.3381  0.2036  1.0528
 2706SOL     OW 9537   7.391   3.481   4.649  0.3298 -0.1642  0.3447
 2706SOL    HW1 9538   7.382   3.438   4.734 -1.6409  0.1106  0.3284
 2706SOL    HW2 9539   7.301   3.491   4.618  0.8554  1.8659 -0.7077
 2707SOL     OW 9540   5.099   2.116   3.582 -0.6280 -0.2368 -1.0204
 2707SOL    HW1 9541   5.065   2.130   3.494 -0.7169  0.2720 -0.9104
 2707SOL    HW2 9542   5.021   2.101   3.636 -0.5873 -0.3478 -0.9910
 2708SOL     OW 9543   5.301   1.932   0.140  0.3239 -0.3084  0.3117
 2708SOL    HW1 9544   5.362   1.911   0.068 -0.4909  0.1100 -0.5294
 2708SOL    HW2 9545   5.214   1.920   0.102 -0.1348 -0.8916  1.4965
 2709SOL     OW 9546   0.368   1.444   2.586 -0.0327  0.7937  0.1093
 2709SOL    HW1 9547   0.407   1.491   2.512 -0.8713 -0.0780 -0.9315
 2709SOL    HW2 9548   0.274   1.459   2.576 -0.1877  0.2827  0.7346
 2710SOL     OW 9549   7.552   3.174   5.783 -0.1313 -0.1557 -0.2494
 2710SOL    HW1 9550   7.512   3.088   5.801 -1.4370  0.2194 -1.2369
 2710SOL    HW2 9551   7.642   3.165   5.815 -0.7686 -1.2693  1.4207
 2711SOL     OW 9552   6.674   0.448   4.555 -0.3712  0.1023  0.0383
 2711SOL    HW1 9553   6.660   0.363   4.512 -0.0099 -0.3747  0.8252
 2711SOL    HW2 9554   6.769   0.454   4.564 -0.4545  0.0033  1.1046
 2712SOL     OW 9555   4.814   7.540   4.457  0.1878  0.0171 -0.0354
 2712SOL    HW1 9556   4.749   7.497   4.402  0.1520  0.8787 -0.6879
 2712SOL    HW2 9557   4.763   7.589   4.521  0.2133 -0.1004  0.0760
 2713SOL     OW 9558   6.001   4.839   7.330  0.2496  0.1322  0.1609
 2713SOL    HW1 9559   6.035   4.927   7.316  0.6741  0.3431  2.2090
 2713SOL    HW2 9560   5.941   4.848   7.404 -0.6262 -1.1069 -0.3503
 2714SOL     OW 9561   5.246   2.126   0.838  0.0481  0.1289  0.7392
 2714SOL    HW1 9562   5.320   2.165   0.790 -0.5203  0.4250  0.0739
 2714SOL    HW2 9563   5.259   2.154   0.929  1.8538 -1.5065  1.0401
 2715SOL     OW 9564   3.111   6.236   0.986  0.3066  0.1941 -0.0490
 2715SOL    HW1 9565   3.172   6.186   0.932  2.1922  0.1448  1.9833
 2715SOL    HW2 9566   3.094   6.316   0.936  2.5540  0.4739 -0.4489
 2716SOL     OW 9567   5.128   0.029   6.692  0.1396 -0.3269  0.0806
 2716SOL    HW1 9568   5.168   0.106   6.732 -0.7982  0.3620 -0.2692
 2716SOL    HW2 9569   5.201  -0.029   6.672  0.9251  0.7548 -0.2436
 2717SOL     OW 9570   4.328   1.580   0.226 -0.5050 -0.5146  0.3268
 2717SOL    HW1 9571   4.252   1.613   0.177  0.4056 -2.6028 -2.7788
 2717SOL    HW2 9572   4.380   1.533   0.161  1.9824 -1.6822  2.9476
 2718SOL     OW 9573   6.750   5.548   4.453  0.3471 -0.6343  0.1193
 2718SOL    HW1 9574   6.663   5.571   4.419 -0.0955 -2.7574 -0.3692
 2718SOL    HW2 9575   6.808   5.553   4.377  0.3607 -0.5943  0.1323
 2719SOL     OW 9576   7.584   7.797   7.451  0.3697 -0.3838 -0.2960
 2719SOL    HW1 9577   7.534   7.794   7.533  0.4170 -0.0697 -0.2559
 2719SOL    HW2 9578   7.549   7.724   7.400  0.0239 -0.3011 -0.1800
 2720SOL     OW 9579   4.442   1.313   5.927  0.0863 -0.3611  0.2279
 2720SOL    HW1 9580   4.443   1.240   5.989  3.3188  0.4714  1.3840
 2720SOL    HW2 9581   4.395   1.383   5.974  0.8182 -0.3590  0.9884
 2721SOL     OW 9582   6.369   0.053   4.937 -0.3198  0.5085 -0.0751
 2721SOL    HW1 9583   6.430   0.092   4.875  0.2561 -0.4500 -0.1301
 2721SOL    HW2 9584   6.376  -0.042   4.922 -1.9166  0.3721 -0.1742
 2722SOL     OW 9585   1.723   7.884   7.183  0.3011 -0.5875  0.3581
 2722SOL    HW1 9586   1.716   7.950   7.252 -0.3365 -0.3944  0.1180
 2722SOL    HW2 9587   1.723   7.935   7.102 -1.1449 -0.9152  0.1289
 2723SOL     OW 9588   1.014   5.204   0.791 -0.4741  0.1408 -0.3501
 2723SOL    HW1 9589   0.932   5.199   0.840  0.4395 -0.5513  1.1809
 2723SOL    HW2 9590   1.002   5.143   0.719 -1.3735  0.1916 -0.2557
 2724SOL     OW 9591   1.068   0.232   1.302  0.2489  0.0061 -0.1435
 2724SOL    HW1 9592   0.990   0.230   1.247 -0.5174 -0.3596  0.9090
 2724SOL    HW2 9593   1.109   0.146   1.290 -0.8505 -0.7241  1.1184
 2725SOL     OW 9594   6.697   3.450   4.970  0.1704 -0.6217  0.3860
 2725SOL    HW1 9595   6.687   3.496   4.887 -0.8871  0.2356  0.9519
 2725SOL    HW2 9596   6.639   3.497   5.030 -1.2835 -2.9372  0.9053
 2726SOL     OW 9597   0.255   0.648   1.181  0.2857 -0.4520 -0.3135
 2726SOL    HW1 9598   0.245   0.637   1.087 -0.8638 -0.9849 -0.1441
 2726SOL    HW2 9599   0.269   0.560   1.215 -0.2882 -0.3944  0.1046
 2727SOL     OW 9600   2.389   4.850   1.464 -0.4351  0.0722  0.6000
 2727SOL    HW1 9601   2.312   4.850   1.406 -3.3287  0.4592  4.0473
 2727SOL    HW2 9602   2.410   4.943   1.475  0.5778 -0.0337 -0.3320
 2728SOL     OW 9603   5.369   3.757   0.492  0.4644  0.1032 -0.0317
 2728SOL    HW1 9604   5.382   3.824   0.424  3.7036  0.3673  0.6754
 2728SOL    HW2 9605   5.420   3.789   0.567  1.4433 -2.7272  0.6238
 2729SOL     OW 9606   4.157   2.563   4.313  0.4822 -0.5696  0.1770
 2729SOL    HW1 9607   4.218   2.540   4.383  0.0382 -1.7052  0.2081
 2729SOL    HW2 9608   4.084   2.502   4.324 -0.2966  0.2470 -0.3441
 2730SOL     OW 9609   4.810   2.835   0.201 -0.1760 -0.5038  0.3405
 2730SOL    HW1 9610   4.718   2.859   0.203 -0.2826 -0.9184  1.9708
 2730SOL    HW2 9611   4.852   2.904   0.148 -1.4853 -0.6669 -0.9519
 2731SOL     OW 9612   5.294   5.221   1.588 -0.2235  0.4308 -0.0308
 2731SOL    HW1 9613   5.300   5.165   1.510 -0.2672 -1.6966  1.3888
 2731SOL    HW2 9614   5.232   5.175   1.645  0.5499  1.3900  1.6647
 2732SOL     OW 9615   7.408   6.108   7.429  0.6462 -0.0879  0.1929
 2732SOL    HW1 9616   7.475   6.152   7.482  0.8460  1.2763 -1.1479
 2732SOL    HW2 9617   7.423   6.139   7.340 -0.2959 -1.5979 -0.5349
 2733SOL     OW 9618   1.935   7.914   6.656  0.1609  0.5794 -0.8599
 2733SOL    HW1 9619   1.983   7.884   6.580  0.4198 -0.3544 -0.3403
 2733SOL    HW2 9620   1.844   7.894   6.637  0.2515  0.1289 -0.8340
 2734SOL     OW 9621   7.616   1.415   2.570 -0.6688  0.5054  0.0520
 2734SOL    HW1 9622   7.598   1.453   2.656 -0.5627 -1.1408  0.8279
 2734SOL    HW2 9623   7.652   1.328   2.588  1.9773  1.1338 -1.5924
 2735SOL     OW 9624   4.170   2.430   7.837  0.1848 -0.4700  0.0930
 2735SOL    HW1 9625   4.248   2.410   7.888  0.2848  0.8574  0.4926
 2735SOL    HW2 9626   4.194   2.409   7.747  0.8393 -0.5207  0.2723
 2736SOL     OW 9627   5.369   5.381   3.554  0.1279  0.1531  0.3408
 2736SOL    HW1 9628   5.460   5.400   3.576  0.4716  1.5114 -1.9001
 2736SOL    HW2 9629   5.360   5.287   3.566  2.1230 -0.1612 -0.3064
 2737SOL     OW 9630   5.253   3.103   4.439 -0.5114  0.4232  0.0386
 2737SOL    HW1 9631   5.238   3.106   4.534 -1.3066 -0.4817 -0.0369
 2737SOL    HW2 9632   5.234   3.012   4.415  0.9966  0.2959 -0.7923
 2738SOL     OW 9633   1.379   5.277   4.377 -1.1329  0.0562 -0.0742
 2738SOL    HW1 9634   1.421   5.215   4.437 -1.5548 -0.2483 -0.0878
 2738SOL    HW2 9635   1.451   5.328   4.341 -0.4947 -1.8592 -1.7376
 2739SOL     OW 9636   4.464   1.639   3.436 -0.3959  0.4785  0.1365
 2739SOL    HW1 9637   4.410   1.685   3.501  0.5928 -0.5312  1.7317
 2739SOL    HW2 9638   4.502   1.708   3.383 -2.5278  1.2670 -0.4822
 2740SOL     OW 9639   4.760   4.469   2.878 -0.2978  0.4630 -0.7718
 2740SOL    HW1 9640   4.690   4.449   2.940 -0.6835  1.1342 -0.9843
 2740SOL    HW2 9641   4.763   4.393   2.820 -2.3218  1.3381 -2.1010
 2741SOL     OW 9642   7.809   6.609   3.407 -0.0208 -0.4436  0.0931
 2741SOL    HW1 9643   7.737   6.660   3.444 -0.3452 -0.8567  0.0423
 2741SOL    HW2 9644   7.882   6.671   3.400 -0.5811  0.1579 -0.5116
 2742SOL     OW 9645   3.597   1.136   7.815  0.2132  0.2210  0.0582
 2742SOL    HW1 9646   3.639   1.066   7.865 -1.2210  0.9374  2.4078
 2742SOL    HW2 9647   3.541   1.091   7.753  1.0645 -0.6998 -0.0801
 2743SOL     OW 9648   1.165   7.828   3.943  0.1426  0.8881  0.5986
 2743SOL    HW1 9649   1.103   7.786   4.002 -0.2750 -0.8944 -1.0028
 2743SOL    HW2 9650   1.250   7.789   3.965  0.4029  1.9174  1.5065
 2744SOL     OW 9651   3.816   7.147   5.190  0.0289 -0.1335  0.1763
 2744SOL    HW1 9652   3.902   7.166   5.229 -0.0907  0.2684  0.2558
 2744SOL    HW2 9653   3.827   7.167   5.097  0.0935 -0.3298  0.1420
 2745SOL     OW 9654   6.770   3.976   0.637  0.7228  0.0010  0.6885
 2745SOL    HW1 9655   6.803   3.992   0.726 -0.8868  1.7974  1.0341
 2745SOL    HW2 9656   6.782   4.059   0.592  0.6518 -0.6121 -0.4991
 2746SOL     OW 9657   7.789   0.863   0.494 -0.3972 -0.2163  0.4212
 2746SOL    HW1 9658   7.721   0.799   0.474 -0.2075 -0.3481  0.1812
 2746SOL    HW2 9659   7.811   0.902   0.409  0.6801 -1.0437  0.2965
 2747SOL     OW 9660   3.839   5.654   7.927 -0.4733  0.2931 -0.3507
 2747SOL    HW1 9661   3.888   5.576   7.951 -0.1610 -0.1820 -2.3385
 2747SOL    HW2 9662   3.899   5.727   7.946  0.1449 -0.1277 -0.6481
 2748SOL     OW 9663   0.132   4.431   4.184  0.0462 -0.4052 -0.5025
 2748SOL    HW1 9664   0.146   4.346   4.142  0.3723 -0.2296 -0.7504
 2748SOL    HW2 9665   0.213   4.447   4.233  0.0234 -0.1911 -0.5352
 2749SOL     OW 9666   5.756   6.125   7.034 -0.2933  0.2335  0.7076
 2749SOL    HW1 9667   5.706   6.093   6.959 -1.3541  0.4236  1.3172
 2749SOL    HW2 9668   5.788   6.211   7.007  0.7842 -0.4169 -0.1542
 2750SOL     OW 9669   4.690   7.043   1.769  0.2783  0.3665 -0.2570
 2750SOL    HW1 9670   4.667   7.119   1.716 -1.0102 -0.6901 -1.2723
 2750SOL    HW2 9671   4.679   6.969   1.710 -0.6368 -0.7949  1.3071
 2751SOL     OW 9672   0.349   1.967   4.120  0.1105  0.3252  0.3327
 2751SOL    HW1 9673   0.433   1.982   4.076  0.8005 -1.4131  0.9881
 2751SOL    HW2 9674   0.363   2.001   4.209 -0.4706  1.5959 -0.0442
 2752SOL     OW 9675   0.168   0.246   2.758 -0.5333  0.1736  0.6047
 2752SOL    HW1 9676   0.104   0.176   2.771  0.2251 -0.5290  0.6409
 2752SOL    HW2 9677   0.220   0.217   2.684  0.6672  0.0434  1.4842
 2753SOL     OW 9678   7.766   2.654   1.551 -0.3758  0.0809  0.4169
 2753SOL    HW1 9679   7.789   2.572   1.595 -2.1770 -0.1636  0.9564
 2753SOL    HW2 9680   7.687   2.633   1.501  0.4268  0.9179 -1.2721
 2754SOL     OW 9681   1.195   2.319   2.312  0.1620  0.1447 -0.0816
 2754SOL    HW1 9682   1.278   2.298   2.269 -0.3301 -1.9563 -0.0874
 2754SOL    HW2 9683   1.136   2.343   2.241  0.4342  0.5119 -0.1866
 2755SOL     OW 9684   4.196   1.406   3.986  0.2781 -0.0927  0.0585
 2755SOL    HW1 9685   4.286   1.430   4.010 -0.2161  1.2303  0.6931
 2755SOL    HW2 9686   4.182   1.321   4.026  1.8711 -1.2412 -1.6649
 2756SOL     OW 9687   3.170   3.069   1.757 -0.2951 -0.0750  0.4116
 2756SOL    HW1 9688   3.141   3.152   1.719  0.5433  0.9075  1.8405
 2756SOL    HW2 9689   3.142   3.003   1.694 -2.1929  1.1575 -0.1202
 2757SOL     OW 9690   4.858   2.253   2.165 -0.4049  0.0242  0.1999
 2757SOL    HW1 9691   4.940   2.276   2.121  0.0913 -0.8423  0.6472
 2757SOL    HW2 9692   4.842   2.325   2.226 -0.0531  0.2647  0.0113
 2758SOL     OW 9693   6.599   2.639   5.830 -0.4856  0.4252 -0.6690
 2758SOL    HW1 9694   6.686   2.633   5.870 -0.7500  2.9885  0.5029
 2758SOL    HW2 9695   6.555   2.557   5.854 -0.0069  1.0607  2.9133
 2759SOL     OW 9696   6.083   6.019   5.533  0.2466  0.0174  0.3085
 2759SOL    HW1 9697   6.088   5.924   5.546  2.3051 -0.0897 -0.8527
 2759SOL    HW2 9698   6.073   6.029   5.438 -0.0773  0.9738  0.4340
 2760SOL     OW 9699   3.651   5.874   3.553 -0.1991  0.0961 -0.4763
 2760SOL    HW1 9700   3.657   5.949   3.494 -0.8777  0.3534 -0.2240
 2760SOL    HW2 9701   3.642   5.912   3.640 -0.4831 -0.2747 -0.3393
 2761SOL     OW 9702   1.389   1.405   5.284 -0.3627 -0.3653  0.7306
 2761SOL    HW1 9703   1.316   1.346   5.266 -0.5703 -0.2466  1.1553
 2761SOL    HW2 9704   1.462   1.348   5.305 -0.4097 -0.4834  0.5675
 2762SOL     OW 9705   3.648   5.934   0.591  0.1887 -0.0983 -0.2133
 2762SOL    HW1 9706   3.731   5.911   0.634  1.2408  1.3062 -1.3677
 2762SOL    HW2 9707   3.665   6.020   0.552 -2.4756  1.2118  1.2427
 2763SOL     OW 9708   6.507   5.479   3.257 -0.6968 -0.0104  0.0745
 2763SOL    HW1 9709   6.560   5.503   3.181 -0.5958 -0.7624 -0.1062
 2763SOL    HW2 9710   6.553   5.516   3.332  0.1706 -0.7668 -0.0684
 2764SOL     OW 9711   0.588   3.885   2.624  0.4442 -0.4949 -0.0483
 2764SOL    HW1 9712   0.581   3.954   2.689 -3.3277 -0.7686  0.0387
 2764SOL    HW2 9713   0.626   3.928   2.547 -1.4002  1.6640  0.1375
 2765SOL     OW 9714   0.827   1.575   3.530 -0.5012  0.4187  0.0754
 2765SOL    HW1 9715   0.923   1.586   3.533 -0.0273 -2.9216  2.3820
 2765SOL    HW2 9716   0.798   1.598   3.618 -0.7681 -4.4962  1.5585
 2766SOL     OW 9717   1.053   4.072   4.376  0.4670 -0.3550  0.5915
 2766SOL    HW1 9718   1.019   3.997   4.328  1.1820 -0.0057 -0.4968
 2766SOL    HW2 9719   1.143   4.048   4.398  0.8549  0.3448 -0.1682
 2767SOL     OW 9720   7.666   1.140   0.298  0.0256 -0.1276  0.3678
 2767SOL    HW1 9721   7.756   1.161   0.276  0.0772 -0.1952  0.5124
 2767SOL    HW2 9722   7.658   1.164   0.391  0.3484 -1.5889  0.7915
 2768SOL     OW 9723   5.207   5.342   0.848  0.8391 -0.5660  0.5914
 2768SOL    HW1 9724   5.275   5.408   0.833 -0.3766  0.8256  0.9810
 2768SOL    HW2 9725   5.178   5.318   0.760  0.5230  0.2628  0.4607
 2769SOL     OW 9726   1.946   7.523   4.687  0.7885  0.7004 -0.1374
 2769SOL    HW1 9727   1.900   7.481   4.615  0.1443  3.0104 -1.1838
 2769SOL    HW2 9728   1.932   7.617   4.672 -0.6343  1.2926  3.8013
 2770SOL     OW 9729   2.748   6.335   0.372 -0.7351  0.4524 -0.8873
 2770SOL    HW1 9730   2.834   6.307   0.343 -0.5132  0.0630  0.1157
 2770SOL    HW2 9731   2.731   6.416   0.322  0.4115  0.8009 -0.7322
 2771SOL     OW 9732   7.516   0.374   7.581 -0.1055 -0.0135 -0.0431
 2771SOL    HW1 9733   7.464   0.296   7.602  1.2022 -0.8815  0.0386
 2771SOL    HW2 9734   7.467   0.446   7.621 -1.8510 -0.6333 -0.9426
 2772SOL     OW 9735   2.943   7.984   7.453 -0.5018  1.0700  0.1220
 2772SOL    HW1 9736   2.957   7.898   7.493  0.6831  0.8246 -0.7850
 2772SOL    HW2 9737   2.849   7.988   7.438 -0.5299 -0.2432 -0.2010
 2773SOL     OW 9738   0.309   6.585   5.018 -0.5255  0.3020  0.0497
 2773SOL    HW1 9739   0.364   6.522   5.065  0.0424  1.4448  0.9769
 2773SOL    HW2 9740   0.308   6.553   4.928  0.1700 -0.7446  0.3885
 2774SOL     OW 9741   3.187   1.175   2.820  0.4722  0.2491  0.1949
 2774SOL    HW1 9742   3.218   1.197   2.732 -1.4904  0.2211 -0.5516
 2774SOL    HW2 9743   3.201   1.081   2.828 -0.6011 -0.0062 -0.6656
 2775SOL     OW 9744   0.701   4.289   4.952  0.9022  0.2383 -0.8031
 2775SOL    HW1 9745   0.787   4.323   4.976  0.2795 -0.2084  2.5706
 2775SOL    HW2 9746   0.720   4.212   4.899  2.6896 -0.3464  0.5709
 2776SOL     OW 9747   6.960   6.944   4.061 -0.2394 -0.2760  0.6284
 2776SOL    HW1 9748   6.895   6.999   4.017  2.0607  2.4032  0.3138
 2776SOL    HW2 9749   6.990   6.884   3.993  0.1826  0.9184 -0.2767
 2777SOL     OW 9750   0.149   4.867   2.158 -0.4591  0.0538 -0.0316
 2777SOL    HW1 9751   0.095   4.799   2.198 -0.6176  0.1375 -0.1015
 2777SOL    HW2 9752   0.203   4.900   2.229 -1.4393  0.8980  0.3608
 2778SOL     OW 9753   7.084   7.982   5.245  0.0245 -0.2815 -0.1070
 2778SOL    HW1 9754   7.126   8.068   5.244  0.0460 -0.2927 -0.1735
 2778SOL    HW2 9755   7.155   7.920   5.263 -0.0140 -0.2724  0.0727
 2779SOL     OW 9756   2.243   6.478   5.371 -0.1563 -0.3087  0.0674
 2779SOL    HW1 9757   2.291   6.396   5.363  0.3911  0.1008 -0.9747
 2779SOL    HW2 9758   2.302   6.544   5.337 -0.4545  0.5877  1.2382
 2780SOL     OW 9759   7.086   0.788   2.454 -0.6189 -0.2684 -0.1225
 2780SOL    HW1 9760   7.173   0.807   2.419 -1.1567  0.8290 -0.9436
 2780SOL    HW2 9761   7.070   0.856   2.519 -0.0667 -1.6738  1.5529
 2781SOL     OW 9762   7.152   7.480   1.108 -0.0626 -0.0941  0.4381
 2781SOL    HW1 9763   7.107   7.412   1.160 -0.8905 -0.7276 -1.0428
 2781SOL    HW2 9764   7.119   7.562   1.144 -1.2300 -0.5270  0.4245
 2782SOL     OW 9765   2.975   7.745   5.684 -0.1003  0.1162  0.0886
 2782SOL    HW1 9766   3.021   7.666   5.656  0.1063 -0.4982  2.0520
 2782SOL    HW2 9767   3.016   7.815   5.634  1.1978 -0.7491 -0.1037
 2783SOL     OW 9768   0.498   4.345   3.709  0.0993  0.1053 -0.0331
 2783SOL    HW1 9769   0.403   4.333   3.713  0.0263  0.3439 -0.7759
 2783SOL    HW2 9770   0.524   4.363   3.799 -0.9348  2.6934 -0.1449
 2784SOL     OW 9771   4.874   5.065   1.124  0.2218  0.3202 -0.2990
 2784SOL    HW1 9772   4.899   5.129   1.191 -1.1778  0.2551  0.3278
 2784SOL    HW2 9773   4.920   4.985   1.150  0.2388  0.4819  0.1955
 2785SOL     OW 9774   2.541   4.970   3.186 -0.5920 -0.6590 -0.3111
 2785SOL    HW1 9775   2.587   5.045   3.225 -1.0256 -0.5817  0.0674
 2785SOL    HW2 9776   2.493   4.931   3.259 -1.6424 -0.3510 -0.8177
 2786SOL     OW 9777   2.265   7.021   2.943  0.0655  0.3532 -0.5820
 2786SOL    HW1 9778   2.248   6.961   2.871 -1.4530 -0.9319  0.8025
 2786SOL    HW2 9779   2.340   6.983   2.989 -1.4855 -1.1220  0.8652
 2787SOL     OW 9780   6.709   5.785   5.433 -0.3741  0.6682  0.1805
 2787SOL    HW1 9781   6.755   5.793   5.350  0.6351 -1.3100  0.4854
 2787SOL    HW2 9782   6.748   5.852   5.490 -1.8146  2.7709 -1.1845
 2788SOL     OW 9783   4.412   7.270   0.795 -0.6245  0.1172 -0.2922
 2788SOL    HW1 9784   4.425   7.235   0.883 -1.9686  0.8667  0.2252
 2788SOL    HW2 9785   4.420   7.193   0.738 -1.2218 -0.6500  0.6109
 2789SOL     OW 9786   1.980   4.097   2.829 -0.1325  0.1725  0.3614
 2789SOL    HW1 9787   1.984   4.003   2.849  0.9986  0.4669  1.6911
 2789SOL    HW2 9788   1.944   4.101   2.741  0.8867 -1.5685 -0.1869
 2790SOL     OW 9789   0.361   2.337   6.678  0.0813 -0.1734 -0.4992
 2790SOL    HW1 9790   0.456   2.329   6.688  0.2264  1.4319 -0.2826
 2790SOL    HW2 9791   0.329   2.349   6.768 -0.1083  1.0256 -0.7059
 2791SOL     OW 9792   7.658   7.147   3.374 -0.0211 -0.5478  0.8321
 2791SOL    HW1 9793   7.727   7.081   3.365 -0.3629 -0.9441  1.1177
 2791SOL    HW2 9794   7.693   7.225   3.329  1.3184 -0.1999  2.3972
 2792SOL     OW 9795   1.501   2.046   5.516  0.3702  0.2382  0.9441
 2792SOL    HW1 9796   1.504   2.122   5.458 -3.3402 -0.3701 -0.3199
 2792SOL    HW2 9797   1.413   2.048   5.554  0.2023 -3.2441  1.0674
 2793SOL     OW 9798   5.523   1.419   2.348  0.7224  0.0434  0.1813
 2793SOL    HW1 9799   5.538   1.512   2.365  0.6496  0.0452  0.2395
 2793SOL    HW2 9800   5.430   1.407   2.368  0.9036 -0.2008  0.9262
 2794SOL     OW 9801   4.294   6.161   2.499  0.3059  0.4378  0.6602
 2794SOL    HW1 9802   4.316   6.102   2.427 -1.5210  1.5862 -0.9043
 2794SOL    HW2 9803   4.214   6.124   2.537 -0.4784  1.5212  0.0881
 2795SOL     OW 9804   3.919   4.996   0.152  0.1755  0.0831  0.0168
 2795SOL    HW1 9805   3.882   5.082   0.173  0.9907  0.1156  1.5170
 2795SOL    HW2 9806   3.859   4.959   0.087  0.9535  2.6336 -2.3374
 2796SOL     OW 9807   2.857   0.082   1.285  0.3522  0.6107 -0.3158
 2796SOL    HW1 9808   2.842   0.035   1.203 -0.6898 -0.9330  0.7051
 2796SOL    HW2 9809   2.929   0.034   1.326 -0.7797 -0.2186  0.7784
 2797SOL     OW 9810   5.868   3.545   2.589 -0.1157 -0.8544 -0.2151
 2797SOL    HW1 9811   5.937   3.600   2.625 -0.4213 -1.3060  1.1146
 2797SOL    HW2 9812   5.790   3.601   2.589 -0.1415 -0.8920 -0.0894
 2798SOL     OW 9813   6.495   2.388   5.094  0.1148 -0.2279 -0.0632
 2798SOL    HW1 9814   6.411   2.415   5.132  0.7810 -0.9311  1.9872
 2798SOL    HW2 9815   6.510   2.300   5.128  0.9327 -0.7666 -1.7206
 2799SOL     OW 9816   7.397   3.310   7.680  0.2631  0.1039 -0.5453
 2799SOL    HW1 9817   7.481   3.316   7.725  0.9384 -0.0150 -1.7531
 2799SOL    HW2 9818   7.415   3.336   7.590 -0.6066 -1.5942 -1.2757
 2800SOL     OW 9819   6.973   3.443   0.149  0.1946  0.0715  0.2582
 2800SOL    HW1 9820   7.002   3.352   0.145  1.5813  0.5116 -0.7380
 2800SOL    HW2 9821   6.917   3.454   0.072 -0.8701 -0.2006  0.9743
 2801SOL     OW 9822   6.575   3.333   2.764 -0.1854 -0.1668 -0.0244
 2801SOL    HW1 9823   6.601   3.307   2.852 -1.5294 -2.1381 -0.1459
 2801SOL    HW2 9824   6.655   3.328   2.712  0.4021 -0.0456  0.8600
 2802SOL     OW 9825   3.870   7.125   2.241  0.4966  0.6629  0.3151
 2802SOL    HW1 9826   3.793   7.178   2.264 -0.1929 -0.3734  0.4428
 2802SOL    HW2 9827   3.926   7.185   2.192 -0.3999  1.4350  0.2039
 2803SOL     OW 9828   6.575   0.190   4.762  0.2954  1.1042 -0.2475
 2803SOL    HW1 9829   6.615   0.106   4.788  0.5719  0.9265 -1.1863
 2803SOL    HW2 9830   6.618   0.255   4.817  0.2301  0.6476  0.3469
 2804SOL     OW 9831   1.571   2.412   0.127  0.0656 -0.3738  0.0668
 2804SOL    HW1 9832   1.593   2.329   0.085  0.5247  0.8759 -2.3002
 2804SOL    HW2 9833   1.654   2.458   0.134 -0.2356  0.0451  1.0485
 2805SOL     OW 9834   4.672   7.385   4.277 -0.0905  0.0419  0.1253
 2805SOL    HW1 9835   4.667   7.292   4.257  4.3308 -0.3908  0.0558
 2805SOL    HW2 9836   4.617   7.427   4.211 -1.1886 -2.4021 -0.6295
 2806SOL     OW 9837   4.372   0.793   1.151 -0.4169 -0.3479 -0.1762
 2806SOL    HW1 9838   4.321   0.853   1.205 -0.7344 -0.0378 -0.8059
 2806SOL    HW2 9839   4.463   0.807   1.179 -0.6620 -0.9081  0.9516
 2807SOL     OW 9840   5.345   2.620   4.412  0.4249  0.6923 -0.2799
 2807SOL    HW1 9841   5.296   2.538   4.419  2.6439 -0.6742  0.4349
 2807SOL    HW2 9842   5.312   2.675   4.482  0.1666 -0.3330  0.4217
 2808SOL     OW 9843   5.495   5.895   6.588  0.1080  0.2566 -0.8368
 2808SOL    HW1 9844   5.525   5.922   6.501 -1.5834  1.0503 -1.2218
 2808SOL    HW2 9845   5.483   5.977   6.636 -0.0825 -0.1124 -0.2441
 2809SOL     OW 9846   2.251   4.984   4.034 -0.3884 -0.3899 -0.1419
 2809SOL    HW1 9847   2.292   4.898   4.037 -2.1582 -1.2649  0.5783
 2809SOL    HW2 9848   2.189   4.983   4.108 -1.7728  0.7871 -1.2330
 2810SOL     OW 9849   0.652   1.309   1.297 -0.2397  0.0834  0.0750
 2810SOL    HW1 9850   0.592   1.338   1.229 -0.1034 -1.5148 -0.7920
 2810SOL    HW2 9851   0.596   1.268   1.363 -0.1668 -0.9711 -0.4995
 2811SOL     OW 9852   4.840   3.510   6.039 -0.0755 -0.0976 -0.8148
 2811SOL    HW1 9853   4.793   3.578   5.991 -0.1980 -0.9847 -2.0013
 2811SOL    HW2 9854   4.815   3.523   6.130 -0.4828  1.1363 -1.0893
 2812SOL     OW 9855   4.133   1.022   2.486  0.4349  0.0542 -0.3044
 2812SOL    HW1 9856   4.106   0.932   2.504 -0.2862  0.2111 -0.5713
 2812SOL    HW2 9857   4.145   1.061   2.573 -0.9628  0.1987 -0.1527
 2813SOL     OW 9858   5.734   7.681   5.784  0.0530 -0.2136  0.0763
 2813SOL    HW1 9859   5.757   7.762   5.738 -1.1485  0.3831  0.4825
 2813SOL    HW2 9860   5.641   7.669   5.764  0.1041 -1.2308  0.4337
 2814SOL     OW 9861   6.076   1.778   7.897 -0.4691  0.0007 -0.0398
 2814SOL    HW1 9862   6.135   1.793   7.823 -0.7435 -0.5563 -0.3826
 2814SOL    HW2 9863   5.989   1.800   7.863 -0.8042 -1.6660 -0.3721
 2815SOL     OW 9864   2.527   7.568   7.293 -0.1045  0.3740  0.5970
 2815SOL    HW1 9865   2.561   7.486   7.259  1.5658  1.0243  0.5988
 2815SOL    HW2 9866   2.482   7.544   7.373 -0.0643 -0.5953  0.3424
 2816SOL     OW 9867   4.343   2.906   1.057 -0.5797 -0.0060  0.0819
 2816SOL    HW1 9868   4.402   2.960   1.111  0.1149 -0.9499  0.2944
 2816SOL    HW2 9869   4.285   2.969   1.015  1.0467  1.0293 -0.7027
 2817SOL     OW 9870   7.086   5.628   1.358 -0.6936 -0.1798  0.2372
 2817SOL    HW1 9871   7.156   5.685   1.390  0.7572 -2.2152  0.8792
 2817SOL    HW2 9872   7.025   5.621   1.432 -1.0947  0.8286  0.0135
 2818SOL     OW 9873   0.510   4.380   7.374  0.5834 -0.3591 -0.0963
 2818SOL    HW1 9874   0.582   4.357   7.433  0.2928 -2.6815 -0.5368
 2818SOL    HW2 9875   0.517   4.316   7.303 -1.0061  0.3514 -0.9262
 2819SOL     OW 9876   7.366   6.003   6.769  0.4843 -0.4319  0.8452
 2819SOL    HW1 9877   7.406   5.917   6.774  0.6659 -0.5284 -1.4688
 2819SOL    HW2 9878   7.422   6.053   6.710 -0.3930  0.8362  1.0355
 2820SOL     OW 9879   2.540   1.609   4.797 -0.3341 -0.6256 -0.1166
 2820SOL    HW1 9880   2.536   1.514   4.809  0.0147 -0.7137 -0.6884
 2820SOL    HW2 9881   2.601   1.639   4.864  0.4339 -0.9422 -0.6579
 2821SOL     OW 9882   3.240   6.892   1.478  0.4084  0.2062 -0.2411
 2821SOL    HW1 9883   3.281   6.832   1.416  0.2506  0.1944 -0.3357
 2821SOL    HW2 9884   3.191   6.834   1.538  1.1626  0.1668  0.3488
 2822SOL     OW 9885   5.539   0.825   7.521 -0.8109 -0.5624 -0.5430
 2822SOL    HW1 9886   5.624   0.839   7.564 -1.1533 -0.0560 -0.0234
 2822SOL    HW2 9887   5.560   0.819   7.428 -0.2502 -0.0627 -0.4534
 2823SOL     OW 9888   4.756   1.450   2.378  0.1193 -0.7388  0.0286
 2823SOL    HW1 9889   4.681   1.501   2.349  0.4956 -0.5550 -0.6333
 2823SOL    HW2 9890   4.831   1.509   2.372  0.3059 -0.8659  0.8505
 2824SOL     OW 9891   0.337   4.969   4.973 -0.2410 -0.0928  0.3263
 2824SOL    HW1 9892   0.362   4.878   4.986  4.1044  0.2791 -2.9433
 2824SOL    HW2 9893   0.377   5.016   5.046 -0.0194 -0.5835  0.5202
 2825SOL     OW 9894   1.171   7.414   7.195 -0.4395 -0.4877  0.2632
 2825SOL    HW1 9895   1.216   7.352   7.137 -0.8850 -0.0877 -0.5211
 2825SOL    HW2 9896   1.087   7.373   7.214 -0.7993 -0.0815 -0.3813
 2826SOL     OW 9897   4.093   4.275   7.648  0.0678 -0.1562  0.1312
 2826SOL    HW1 9898   4.005   4.239   7.645  0.1416 -0.5334  1.6416
 2826SOL    HW2 9899   4.110   4.290   7.741  2.4565 -2.3395  0.1840
 2827SOL     OW 9900   1.579   5.547   8.041  0.3360  0.3072  0.2358
 2827SOL    HW1 9901   1.573   5.543   7.946 -1.3499  3.6898  0.0284
 2827SOL    HW2 9902   1.671   5.564   8.059  0.3908  1.4625 -0.9776
 2828SOL     OW 9903   1.160   2.888   2.931 -0.2837  0.2963  0.2990
 2828SOL    HW1 9904   1.251   2.870   2.909 -0.2893 -0.4889  0.8812
 2828SOL    HW2 9905   1.124   2.803   2.955 -0.8782  0.7689  1.1283
 2829SOL     OW 9906   7.259   7.434   3.442  0.2504  0.3973  0.1479
 2829SOL    HW1 9907   7.257   7.486   3.361 -1.2272 -1.9559 -1.4730
 2829SOL    HW2 9908   7.168   7.435   3.473  0.4718 -0.1026  0.8336
 2830SOL     OW 9909   0.895   5.107   2.124  0.0472  0.0739 -0.6460
 2830SOL    HW1 9910   0.980   5.114   2.081  0.9912  3.8364  1.4821
 2830SOL    HW2 9911   0.832   5.128   2.055  1.3050  2.8593 -1.0520
 2831SOL     OW 9912   0.242   3.284   6.719 -0.4893  0.0720  0.1221
 2831SOL    HW1 9913   0.238   3.264   6.626  0.5018  2.3162 -0.4703
 2831SOL    HW2 9914   0.329   3.253   6.746 -0.6364 -0.2486  0.2410
 2832SOL     OW 9915   0.385   7.329   3.875 -0.0729  0.2708 -0.3260
 2832SOL    HW1 9916   0.322   7.271   3.919  4.0299 -2.2865  2.9077
 2832SOL    HW2 9917   0.419   7.277   3.803 -0.6407  1.1790 -1.2915
 2833SOL     OW 9918   1.383   2.170   7.954 -0.0803 -0.8180 -0.0598
 2833SOL    HW1 9919   1.472   2.138   7.943  0.1886 -0.0240 -0.2192
 2833SOL    HW2 9920   1.381   2.208   8.041 -0.1018 -0.3147 -0.2796
 2834SOL     OW 9921   6.535   4.246   8.035  0.0497 -0.2163  0.7234
 2834SOL    HW1 9922   6.565   4.162   8.070 -0.3450 -0.8362 -0.3494
 2834SOL    HW2 9923   6.517   4.300   8.112  0.1221 -1.1878  1.4369
 2835SOL     OW 9924   5.605   0.916   3.357  0.1019  0.0919  0.4957
 2835SOL    HW1 9925   5.649   0.915   3.442  1.4491  0.1924 -0.1842
 2835SOL    HW2 9926   5.539   0.847   3.364  0.3793 -0.0844  1.5342
 2836SOL     OW 9927   3.999   5.205   0.565 -0.3200 -0.2987 -0.1297
 2836SOL    HW1 9928   4.060   5.207   0.491 -0.6384  0.0548 -0.3881
 2836SOL    HW2 9929   3.938   5.133   0.544 -0.8576  0.2730 -0.5839
 2837SOL     OW 9930   5.463   3.262   5.674 -0.6082  0.2016  0.5963
 2837SOL    HW1 9931   5.393   3.233   5.732  0.1821 -3.3051  0.0610
 2837SOL    HW2 9932   5.423   3.331   5.620 -2.7643  0.2212  2.1087
 2838SOL     OW 9933   1.675   7.679   7.610  0.6927  0.1281  0.3238
 2838SOL    HW1 9934   1.685   7.608   7.547 -2.5383  0.6662 -0.9593
 2838SOL    HW2 9935   1.663   7.636   7.694 -0.2647 -0.8290 -0.2882
 2839SOL     OW 9936   7.888   1.579   3.049 -0.0787 -0.0408  0.1392
 2839SOL    HW1 9937   7.825   1.576   3.121  0.7273  1.1671  0.9356
 2839SOL    HW2 9938   7.963   1.529   3.081 -0.9797 -2.4671 -1.2443
 2840SOL     OW 9939   3.642   5.016   3.040 -0.0167 -0.1039 -0.2253
 2840SOL    HW1 9940   3.692   5.050   3.114 -0.5971  2.8357 -1.0449
 2840SOL    HW2 9941   3.572   4.965   3.080 -0.0862  1.0862  1.2917
 2841SOL     OW 9942   7.166   2.511   7.313 -0.4289 -0.1445  0.2661
 2841SOL    HW1 9943   7.193   2.512   7.221 -1.0726  0.3550  0.0697
 2841SOL    HW2 9944   7.176   2.602   7.342 -1.4306 -0.0410  0.3193
 2842SOL     OW 9945   6.240   7.867   4.172  0.3246  0.3345 -0.3143
 2842SOL    HW1 9946   6.280   7.790   4.210  0.8444  0.6395 -0.2305
 2842SOL    HW2 9947   6.253   7.936   4.237 -0.6872  0.3534 -0.1149
 2843SOL     OW 9948   7.582   0.493   0.697 -0.5124  0.1258  0.3265
 2843SOL    HW1 9949   7.642   0.431   0.656  0.1361 -0.0087  1.4255
 2843SOL    HW2 9950   7.514   0.509   0.631  1.0619  0.7934 -1.2057
 2844SOL     OW 9951   3.458   5.741   7.653 -0.3973 -0.1429 -0.2483
 2844SOL    HW1 9952   3.372   5.767   7.620 -2.3012 -1.1185  3.3182
 2844SOL    HW2 9953   3.464   5.647   7.636 -0.8613 -0.4136  0.9744
 2845SOL     OW 9954   5.864   5.249   4.489 -0.2523 -0.2282 -0.0199
 2845SOL    HW1 9955   5.826   5.177   4.538 -0.7376 -0.0149 -0.0767
 2845SOL    HW2 9956   5.877   5.215   4.401 -0.0887 -0.3750  0.0607
 2846SOL     OW 9957   5.479   3.653   5.367 -0.0249 -0.4852 -0.4861
 2846SOL    HW1 9958   5.543   3.699   5.421  0.5044  0.1208 -1.6011
 2846SOL    HW2 9959   5.532   3.601   5.306 -0.4481  1.7467 -2.9475
 2847SOL     OW 9960   5.228   0.955   2.484  0.4751  0.0578  0.4118
 2847SOL    HW1 9961   5.134   0.937   2.482  0.2296  1.2235  0.5718
 2847SOL    HW2 9962   5.237   1.040   2.442  1.3195  0.5116  1.4491
 2848SOL     OW 9963   3.040   4.539   4.940  0.1652  0.3274 -0.7956
 2848SOL    HW1 9964   3.135   4.540   4.943  0.1420  1.1303 -0.0223
 2848SOL    HW2 9965   3.018   4.575   4.854  0.5450  1.2093 -0.5311
 2849SOL     OW 9966   1.124   3.797   3.639 -0.3473  0.2955 -0.3489
 2849SOL    HW1 9967   1.106   3.838   3.723  0.1628 -0.8088  0.3167
 2849SOL    HW2 9968   1.101   3.864   3.574 -0.4780  1.2576  0.6663
 2850SOL     OW 9969   0.495   5.813   2.788 -0.3082  0.3088  0.2414
 2850SOL    HW1 9970   0.527   5.903   2.780  2.0723 -0.5698 -1.1795
 2850SOL    HW2 9971   0.522   5.786   2.876 -0.3650  0.7375  0.3945
 2851SOL     OW 9972   1.284   1.922   4.977 -0.3186 -0.3147 -0.0183
 2851SOL    HW1 9973   1.192   1.911   5.003 -0.1552 -0.9134  0.3215
 2851SOL    HW2 9974   1.284   1.907   4.882 -0.5460 -0.4787  0.0067
 2852SOL     OW 9975   7.588   7.830   1.529  0.2119 -0.5660  0.1391
 2852SOL    HW1 9976   7.577   7.736   1.534 -2.0437 -0.4041 -0.9039
 2852SOL    HW2 9977   7.522   7.866   1.588  0.2009  0.3776 -0.4156
 2853SOL     OW 9978   2.466   6.894   5.931  0.2107  0.3060 -0.1849
 2853SOL    HW1 9979   2.546   6.916   5.884  1.6246 -1.5570  1.2039
 2853SOL    HW2 9980   2.463   6.798   5.931 -0.7009  0.2731  1.8541
 2854SOL     OW 9981   6.673   2.980   3.241 -0.8066  0.7903 -0.5287
 2854SOL    HW1 9982   6.583   2.971   3.271 -0.2073  0.5311  1.2810
 2854SOL    HW2 9983   6.717   3.029   3.310  0.2585  1.7052 -1.7932
 2855SOL     OW 9984   7.568   0.850   6.549  0.0894 -0.6512  0.0990
 2855SOL    HW1 9985   7.476   0.832   6.530  0.1546  0.0585 -0.9722
 2855SOL    HW2 9986   7.616   0.788   6.495  0.2407 -0.4213 -0.0343
 2856SOL     OW 9987   7.253   7.743   6.404  0.1652  0.0658 -0.1397
 2856SOL    HW1 9988   7.293   7.823   6.436 -0.4880 -0.2854  1.6856
 2856SOL    HW2 9989   7.285   7.734   6.314  1.4231  1.5618  0.1194
 2857SOL     OW 9990   4.225   7.974   0.394 -0.0749 -0.2459 -0.5514
 2857SOL    HW1 9991   4.296   7.949   0.452  0.3613 -0.3934 -1.1449
 2857SOL    HW2 9992   4.195   8.058   0.429  0.9834  0.2632 -0.8222
 2858SOL     OW 9993   2.758   5.869   6.435 -0.1498  0.3051 -0.5398
 2858SOL    HW1 9994   2.726   5.958   6.447  0.1452  0.5528 -1.4952
 2858SOL    HW2 9995   2.705   5.816   6.494 -0.4008  1.0956 -0.0459
 2859SOL     OW 9996   5.497   1.086   7.215 -0.5084 -0.6596  0.2611
 2859SOL    HW1 9997   5.401   1.081   7.207 -0.5507 -1.4212  1.0440
 2859SOL    HW2 9998   5.527   1.104   7.126 -1.3999  0.0209  0.0793
 2860SOL     OW 9999   1.848   1.035   6.103 -0.1595  0.9430  0.3779
 2860SOL    HW110000   1.908   1.097   6.145 -0.6333  0.6054  1.5765
 2860SOL    HW210001   1.897   1.004   6.026  0.3617  2.2423  0.1618
 2861SOL     OW10002   5.506   6.529   5.313  0.4933  0.4968  0.3342
 2861SOL    HW110003   5.457   6.547   5.394 -0.3571  1.7505 -0.4308
 2861SOL    HW210004   5.517   6.434   5.313 -0.2722  0.3832  1.4872
 2862SOL     OW10005   3.258   0.553   1.545 -0.6164 -0.5975 -0.2253
 2862SOL    HW110006   3.243   0.627   1.486  2.6361 -0.1203 -0.6029
 2862SOL    HW210007   3.250   0.476   1.488  0.5804 -0.2407 -0.9046
 2863SOL     OW10008   2.293   4.695   2.400 -0.2385 -0.1103 -0.8315
 2863SOL    HW110009   2.230   4.735   2.340  0.7918  1.7317 -0.7235
 2863SOL    HW210010   2.377   4.703   2.357 -0.0265 -3.0244 -1.2060
 2864SOL     OW10011   3.311   5.399   0.271  0.2811 -0.2061  0.0505
 2864SOL    HW110012   3.370   5.464   0.233  2.4289 -1.2388  1.4141
 2864SOL    HW210013   3.354   5.315   0.254  0.6412 -0.8181  3.2998
 2865SOL     OW10014   4.902   6.515   0.073 -0.0301 -0.1401  0.1237
 2865SOL    HW110015   4.952   6.545  -0.003  0.9736  0.2026  0.8841
 2865SOL    HW210016   4.918   6.582   0.139 -2.3871  0.5265  0.0748
 2866SOL     OW10017   1.278   4.850   6.536  0.2617  0.3945  0.5003
 2866SOL    HW110018   1.319   4.774   6.576 -0.7294 -0.7421 -0.5437
 2866SOL    HW210019   1.351   4.902   6.501  0.9266 -0.3597  0.7441
 2867SOL     OW10020   3.140   5.713   4.752  0.0382 -0.3944 -0.2151
 2867SOL    HW110021   3.130   5.809   4.753  0.3937 -0.3197 -1.8641
 2867SOL    HW210022   3.157   5.691   4.844 -1.9257  0.8905  0.5305
 2868SOL     OW10023   6.751   6.256   4.439  0.6178 -0.3464 -0.8959
 2868SOL    HW110024   6.791   6.287   4.520 -0.7588 -0.4445 -0.1570
 2868SOL    HW210025   6.744   6.162   4.450  0.1921 -0.3315 -1.0124
 2869SOL     OW10026   6.633   2.021   7.651 -0.1973 -0.3296  0.1022
 2869SOL    HW110027   6.586   1.966   7.589 -0.6571  1.6359 -1.3743
 2869SOL    HW210028   6.704   2.060   7.600  1.7910 -1.5546  1.7696
 2870SOL     OW10029   5.190   3.103   1.589  0.6499  0.2469  0.0612
 2870SOL    HW110030   5.096   3.122   1.594  0.6779  0.4296 -0.1112
 2870SOL    HW210031   5.200   3.022   1.639  0.2491 -0.2832 -0.6930
 2871SOL     OW10032   6.757   2.363   2.566 -0.6481  0.3109  0.5978
 2871SOL    HW110033   6.670   2.381   2.530 -0.2754  1.5658  0.2608
 2871SOL    HW210034   6.767   2.427   2.637 -0.6690 -0.9720  1.7925
 2872SOL     OW10035   1.982   1.298   6.976  0.9630  0.3970  0.6093
 2872SOL    HW110036   2.066   1.273   7.014  0.9541  1.1141  1.1335
 2872SOL    HW210037   1.964   1.384   7.015 -0.5043 -0.2040  1.3033
 2873SOL     OW10038   4.981   7.617   5.436 -0.6413  0.3227 -0.1734
 2873SOL    HW110039   5.071   7.635   5.463 -0.9429 -0.5693  1.5476
 2873SOL    HW210040   4.989   7.553   5.365  0.0897  0.5803 -0.3283
 2874SOL     OW10041   7.043   0.959   2.679 -0.8430  0.4736  0.4659
 2874SOL    HW110042   7.104   1.010   2.732 -0.0381 -2.3270  2.4725
 2874SOL    HW210043   6.957   0.993   2.703 -0.3023  1.6463  0.8277
 2875SOL     OW10044   5.476   1.923   0.903  0.3248 -0.4321  0.4624
 2875SOL    HW110045   5.502   1.937   0.812 -0.0784  1.5869  0.6278
 2875SOL    HW210046   5.400   1.980   0.916  2.4736  2.1387  3.0302
 2876SOL     OW10047   2.779   5.801   2.176 -0.0237 -0.4906 -0.1401
 2876SOL    HW110048   2.778   5.713   2.213  1.1112  0.1251  1.4510
 2876SOL    HW210049   2.868   5.833   2.193 -1.0920  1.8497  1.5656
 2877SOL     OW10050   4.709   5.862   6.713  0.8771  0.1131 -0.4740
 2877SOL    HW110051   4.734   5.897   6.799  1.7067  1.1901 -1.1421
 2877SOL    HW210052   4.613   5.871   6.711  0.6064 -1.6625  1.0678
 2878SOL     OW10053   6.289   0.729   7.128  0.3902 -0.3325 -0.3721
 2878SOL    HW110054   6.378   0.757   7.148 -0.7944  1.7072  2.7886
 2878SOL    HW210055   6.284   0.638   7.159  1.3278 -0.4144 -0.4508
 2879SOL     OW10056   7.243   2.909   5.051 -0.0482 -0.3945  0.0742
 2879SOL    HW110057   7.229   2.845   5.121 -1.5500 -1.5186 -1.1811
 2879SOL    HW210058   7.304   2.972   5.089  0.5100 -1.8699  1.8058
 2880SOL     OW10059   2.908   5.083   2.465  0.1549 -0.3352 -0.1964
 2880SOL    HW110060   2.826   5.132   2.469  0.7157  0.5468  1.7051
 2880SOL    HW210061   2.914   5.053   2.374 -1.0135  1.7827 -1.0414
 2881SOL     OW10062   5.996   1.091   7.783  0.2457 -0.0451  0.2865
 2881SOL    HW110063   6.008   0.996   7.788  1.2750  0.0031 -0.8407
 2881SOL    HW210064   5.901   1.102   7.779  0.0933 -1.3481 -3.4675
 2882SOL     OW10065   5.372   6.507   7.805 -0.9232 -0.2238 -0.0436
 2882SOL    HW110066   5.333   6.445   7.867  0.2514  0.4853  1.4467
 2882SOL    HW210067   5.328   6.590   7.823  0.7059  0.4297  1.2051
 2883SOL     OW10068   4.614   3.244   0.652 -0.3115 -0.3411 -0.0222
 2883SOL    HW110069   4.569   3.326   0.671  1.5414  0.7072  0.0987
 2883SOL    HW210070   4.642   3.211   0.737 -0.4524 -0.7423 -0.1293
 2884SOL     OW10071   6.236   0.492   5.516  0.0373  0.5019  0.0095
 2884SOL    HW110072   6.283   0.541   5.584  0.4045  1.5496 -0.9612
 2884SOL    HW210073   6.251   0.400   5.537  0.6379  0.8149  0.9959
 2885SOL     OW10074   5.525   3.861   5.019  0.0143 -0.1204  0.2813
 2885SOL    HW110075   5.569   3.943   4.997 -0.7195  0.3565  0.5505
 2885SOL    HW210076   5.468   3.884   5.092  1.3359 -1.3502  1.7543
 2886SOL     OW10077   3.184   3.100   6.931  0.0624 -0.1997  0.1069
 2886SOL    HW110078   3.182   3.166   7.001 -1.2966 -0.1031  0.0060
 2886SOL    HW210079   3.103   3.050   6.943  0.0855 -0.5435 -1.0463
 2887SOL     OW10080   0.311   4.644   2.331 -0.1011 -0.1845 -0.6584
 2887SOL    HW110081   0.264   4.660   2.413 -0.2866 -2.6974 -0.1918
 2887SOL    HW210082   0.256   4.583   2.283  0.1342  1.0539 -2.5898
 2888SOL     OW10083   2.732   2.314   6.540  0.7698  0.4140  0.0601
 2888SOL    HW110084   2.813   2.272   6.569  0.4751 -0.0846  0.1732
 2888SOL    HW210085   2.752   2.346   6.452  0.8667 -0.3579 -0.2107
 2889SOL     OW10086   3.542   6.684   4.322 -0.7413  0.2356  0.2817
 2889SOL    HW110087   3.471   6.721   4.374 -0.4752  0.1144  0.7325
 2889SOL    HW210088   3.502   6.668   4.236 -1.4404 -0.4213  0.7136
 2890SOL     OW10089   1.778   3.653   5.709  0.3222 -0.6527  0.1774
 2890SOL    HW110090   1.823   3.716   5.765 -1.5144  0.2978  0.6448
 2890SOL    HW210091   1.741   3.589   5.770  0.3722 -1.0054 -0.1558
 2891SOL     OW10092   5.278   6.078   5.219 -0.1730 -0.9106  0.7153
 2891SOL    HW110093   5.229   6.132   5.156  0.5036  2.1482  2.5865
 2891SOL    HW210094   5.213   6.020   5.257 -1.7626  0.9225  0.9520
 2892SOL     OW10095   1.233   7.183   1.050 -0.0593 -0.3181  0.3063
 2892SOL    HW110096   1.286   7.247   1.099 -0.7856 -0.1432  0.8816
 2892SOL    HW210097   1.248   7.205   0.958 -1.2880  1.5183  0.5076
 2893SOL     OW10098   6.755   6.157   7.783 -0.0436 -0.2810 -0.3796
 2893SOL    HW110099   6.815   6.109   7.726  1.1750  0.1354  0.5092
 2893SOL    HW210100   6.764   6.115   7.868 -0.6229  0.1256 -0.1121
 2894SOL     OW10101   3.060   7.021   2.092  0.8289 -0.0082 -0.0834
 2894SOL    HW110102   3.021   7.060   2.014  0.9250  0.8993  0.3055
 2894SOL    HW210103   2.987   6.977   2.136  0.4643  0.7221  0.0627
 2895SOL     OW10104   0.393   5.698   4.551  0.3220  0.1257  0.7028
 2895SOL    HW110105   0.310   5.650   4.547  0.9310 -0.9715  0.7244
 2895SOL    HW210106   0.398   5.730   4.641  0.1575 -0.2276  0.8390
 2896SOL     OW10107   0.097   5.711   3.611  0.4150 -0.0568  0.3502
 2896SOL    HW110108   0.003   5.721   3.629  0.5869  1.1482  0.6778
 2896SOL    HW210109   0.126   5.798   3.584  1.4948 -0.3511  0.4952
 2897SOL     OW10110   1.657   3.408   2.447 -0.2335  0.5026 -0.3848
 2897SOL    HW110111   1.637   3.402   2.541  2.1663  0.3032  0.1966
 2897SOL    HW210112   1.730   3.346   2.435 -1.0419 -0.1089 -2.5813
 2898SOL     OW10113   7.154   2.888   1.262  0.1901  0.4693 -0.0298
 2898SOL    HW110114   7.080   2.864   1.319  1.1984  1.2309  1.6752
 2898SOL    HW210115   7.155   2.821   1.194 -0.9321 -0.6072  0.9695
 2899SOL     OW10116   0.577   5.505   0.505 -0.4660 -0.0427 -0.0807
 2899SOL    HW110117   0.486   5.501   0.535 -0.8936  1.8798 -0.9389
 2899SOL    HW210118   0.582   5.439   0.436 -0.4156 -2.0572  1.7639
 2900SOL     OW10119   5.104   0.888   1.249 -0.6953  0.3311  0.3304
 2900SOL    HW110120   5.073   0.799   1.236 -1.2962  0.5444  0.2740
 2900SOL    HW210121   5.095   0.903   1.343  0.8301 -0.1785  0.5844
 2901SOL     OW10122   2.755   0.092   1.989  0.4778 -0.0920  0.4798
 2901SOL    HW110123   2.843   0.113   1.958  0.1441  0.7663  0.0821
 2901SOL    HW210124   2.765   0.010   2.037  1.5150  0.0802  0.5671
 2902SOL     OW10125   6.069   4.503   0.524 -0.3915  0.0570  0.2656
 2902SOL    HW110126   6.107   4.576   0.572  1.2619  0.3243 -1.3388
 2902SOL    HW210127   6.042   4.441   0.592  0.9020  0.8645  1.5653
 2903SOL     OW10128   4.693   0.545   0.323  0.1036 -0.4924  0.7146
 2903SOL    HW110129   4.704   0.637   0.347  0.1981 -0.7813  1.8351
 2903SOL    HW210130   4.782   0.514   0.304 -0.0112 -0.1734 -0.3662
 2904SOL     OW10131   2.906   2.624   6.795  0.3782 -0.1108 -0.1850
 2904SOL    HW110132   2.852   2.673   6.734  0.5261 -1.0677 -1.1096
 2904SOL    HW210133   2.961   2.691   6.838 -1.3625  0.8521  0.6511
 2905SOL     OW10134   1.067   5.358   0.064 -0.7701 -0.5587 -0.1236
 2905SOL    HW110135   1.151   5.330   0.100  0.2547  0.3635 -1.6719
 2905SOL    HW210136   1.014   5.278   0.064  1.2277 -2.0292 -2.0995
 2906SOL     OW10137   7.318   1.866   7.879 -0.0978  0.1187  0.1384
 2906SOL    HW110138   7.331   1.949   7.833 -0.2207  0.1112  0.0907
 2906SOL    HW210139   7.230   1.838   7.854  0.3656 -0.5958 -0.7518
 2907SOL     OW10140   4.560   0.187   4.905  0.1388 -0.5162 -0.0436
 2907SOL    HW110141   4.579   0.202   4.812  0.4016 -3.0339 -0.4737
 2907SOL    HW210142   4.492   0.250   4.927 -0.6721 -0.5494 -2.2575
 2908SOL     OW10143   3.781   2.246   7.972 -0.4007  0.4769  0.1268
 2908SOL    HW110144   3.736   2.259   7.889  0.4435 -0.6405 -0.5424
 2908SOL    HW210145   3.847   2.315   7.974  0.2783 -0.1125 -0.6704
 2909SOL     OW10146   2.721   1.341   7.039  0.4611 -0.4763 -0.6453
 2909SOL    HW110147   2.775   1.274   6.999  0.1653  0.1778 -2.2427
 2909SOL    HW210148   2.777   1.418   7.044  0.3744 -0.4401 -0.1276
 2910SOL     OW10149   3.205   3.797   1.123  0.0379 -0.0472 -0.0362
 2910SOL    HW110150   3.230   3.886   1.098  2.1500 -0.9560 -1.4408
 2910SOL    HW210151   3.178   3.756   1.041 -1.6736 -0.5033  0.7281
 2911SOL     OW10152   0.608   1.837   6.023  0.4840 -0.1558 -0.4585
 2911SOL    HW110153   0.700   1.815   6.039  1.1471  1.1167 -2.2874
 2911SOL    HW210154   0.598   1.925   6.058 -0.3389 -0.6427  0.6003
 2912SOL     OW10155   5.765   2.714   6.288 -0.0348 -0.0870  0.0582
 2912SOL    HW110156   5.792   2.626   6.314 -2.1306 -0.0712  2.6398
 2912SOL    HW210157   5.808   2.773   6.349 -0.5082  0.4881 -0.1449
 2913SOL     OW10158   3.429   5.054   0.709 -0.2010  0.0723 -0.4995
 2913SOL    HW110159   3.522   5.059   0.687 -0.2083 -3.4077 -1.9493
 2913SOL    HW210160   3.386   5.027   0.627 -1.9449 -1.9133  0.9498
 2914SOL     OW10161   5.724   1.525   6.027 -0.5572 -0.2729  0.2686
 2914SOL    HW110162   5.791   1.474   6.072 -0.6582  1.1101  2.0938
 2914SOL    HW210163   5.652   1.463   6.013  0.3991 -1.3189 -0.1331
 2915SOL     OW10164   5.057   1.511   4.446 -0.7449  0.6483  0.1087
 2915SOL    HW110165   5.030   1.523   4.538  1.5715 -0.0001  0.9397
 2915SOL    HW210166   5.137   1.459   4.451 -1.4604 -0.8735 -2.4161
 2916SOL     OW10167   7.094   0.996   2.144  0.1215  0.6137 -0.1452
 2916SOL    HW110168   7.029   1.058   2.111 -0.2470 -0.0769 -0.7499
 2916SOL    HW210169   7.109   1.023   2.234  1.2144  2.6070 -0.8677
 2917SOL     OW10170   0.336   2.693   2.268  0.5743 -0.5370  0.3154
 2917SOL    HW110171   0.322   2.719   2.359 -0.0808  1.6231 -0.3377
 2917SOL    HW210172   0.382   2.767   2.229 -0.6259 -0.6922 -1.5012
 2918SOL     OW10173   3.023   6.281   1.679 -0.2657  0.3965 -0.5892
 2918SOL    HW110174   3.075   6.231   1.741 -0.8358  0.0675 -0.3678
 2918SOL    HW210175   3.048   6.372   1.694 -0.1917  0.2927 -0.0779
 2919SOL     OW10176   7.074   3.695   0.243  0.4361  0.1731  0.0187
 2919SOL    HW110177   7.027   3.627   0.195 -1.9574 -0.0137  2.3581
 2919SOL    HW210178   7.045   3.777   0.203 -0.0716 -0.0406 -0.0560
 2920SOL     OW10179   2.935   1.696   1.174 -0.1479 -0.1160  0.4234
 2920SOL    HW110180   2.899   1.780   1.201 -0.0919 -0.2976  1.0638
 2920SOL    HW210181   3.021   1.717   1.136  0.0234  0.0744  0.9174
 2921SOL     OW10182   4.524   2.303   2.373  0.4863  0.7867  0.4116
 2921SOL    HW110183   4.448   2.341   2.418 -0.2192 -0.4441  0.2993
 2921SOL    HW210184   4.585   2.282   2.443 -0.5779 -1.0547  0.8496
 2922SOL     OW10185   2.389   4.877   2.904  0.5895  0.1219  0.0043
 2922SOL    HW110186   2.482   4.855   2.919  0.5528  0.3280  0.5567
 2922SOL    HW210187   2.383   4.970   2.925  0.0426 -0.1282  0.9941
 2923SOL     OW10188   0.836   4.689   7.165  0.5199 -0.3706  0.4319
 2923SOL    HW110189   0.804   4.700   7.075  0.9328 -0.9238  0.2162
 2923SOL    HW210190   0.759   4.659   7.213  0.5150 -0.9615  0.0697
 2924SOL     OW10191   3.340   4.446   0.161  0.9469 -0.1073 -0.2749
 2924SOL    HW110192   3.338   4.381   0.231 -0.2110 -0.3520 -0.5142
 2924SOL    HW210193   3.360   4.395   0.082  1.1208 -0.0058 -0.2967
 2925SOL     OW10194   4.095   2.461   2.860  0.1986  0.3859 -0.1114
 2925SOL    HW110195   4.054   2.509   2.788  1.4462 -1.3690 -2.0917
 2925SOL    HW210196   4.105   2.372   2.827 -0.0367 -0.7566  2.6250
 2926SOL     OW10197   7.059   2.097   7.735 -0.1538 -0.9457  0.3844
 2926SOL    HW110198   7.101   2.175   7.771  0.5690 -0.3123 -1.7012
 2926SOL    HW210199   6.965   2.111   7.750  0.0068  0.0971  0.4554
 2927SOL     OW10200   7.402   4.007   4.717  0.0085 -0.1115  0.1294
 2927SOL    HW110201   7.494   4.001   4.692  0.0078 -0.2499  0.1587
 2927SOL    HW210202   7.364   4.067   4.653  0.0726 -0.2252 -0.0176
 2928SOL     OW10203   4.795   2.901   4.750  0.1566  0.4178 -0.2057
 2928SOL    HW110204   4.758   2.814   4.739  0.5333  0.2307 -0.0060
 2928SOL    HW210205   4.864   2.890   4.815  0.1149  0.8905 -0.0782
 2929SOL     OW10206   5.651   6.659   0.022  0.0890 -0.2429 -0.2190
 2929SOL    HW110207   5.564   6.636  -0.012  0.4765 -1.3733 -0.5046
 2929SOL    HW210208   5.691   6.574   0.042  1.2619  0.2503 -0.4252
 2930SOL     OW10209   7.456   2.007   3.822 -0.3358  0.1640 -0.1148
 2930SOL    HW110210   7.509   2.053   3.887 -3.4012  2.4494  1.0317
 2930SOL    HW210211   7.487   2.040   3.738 -0.6002  2.3016  0.5754
 2931SOL     OW10212   3.436   8.042   0.184 -0.0045  0.0006 -0.4111
 2931SOL    HW110213   3.512   7.985   0.197 -0.9112 -1.5023 -1.2761
 2931SOL    HW210214   3.428   8.050   0.089 -0.8675  0.2042 -0.3324
 2932SOL     OW10215   7.132   7.088   1.717  0.4267  0.5404  0.1704
 2932SOL    HW110216   7.070   7.030   1.674 -1.2809  1.9002  0.6538
 2932SOL    HW210217   7.142   7.053   1.806 -2.5493  2.2015  1.3044
 2933SOL     OW10218   3.869   7.263   4.119  0.2098 -0.8374 -0.1102
 2933SOL    HW110219   3.918   7.292   4.195 -0.0197  2.2317 -0.9811
 2933SOL    HW210220   3.785   7.309   4.125 -1.3332 -3.3656 -0.4034
 2934SOL     OW10221   3.750   5.930   0.941 -0.0347 -0.3501  0.0904
 2934SOL    HW110222   3.820   5.937   1.006 -0.6884 -1.2399  0.9091
 2934SOL    HW210223   3.791   5.890   0.864  0.9587  1.5134 -0.4097
 2935SOL     OW10224   0.460   0.116   0.331 -0.1723 -0.9525 -0.3803
 2935SOL    HW110225   0.453   0.084   0.241 -1.0601 -1.2322 -0.2167
 2935SOL    HW210226   0.549   0.152   0.337 -0.3945 -0.1288 -1.6394
 2936SOL     OW10227   0.819   3.936   6.634 -0.6277  0.4477  0.4434
 2936SOL    HW110228   0.820   3.962   6.542 -1.3839  0.8039  0.5319
 2936SOL    HW210229   0.903   3.965   6.668 -0.9661  1.6947  0.2438
 2937SOL     OW10230   5.395   5.226   2.879  0.0975  0.2313 -0.1440
 2937SOL    HW110231   5.311   5.260   2.849  0.1330 -0.3874 -0.9807
 2937SOL    HW210232   5.457   5.253   2.811  0.0307 -1.9317 -1.1846
 2938SOL     OW10233   4.701   4.774   7.338  0.3088 -0.6176 -0.2461
 2938SOL    HW110234   4.792   4.803   7.336  0.1012  0.0147 -1.7914
 2938SOL    HW210235   4.656   4.841   7.390  0.9751 -1.8479  2.0402
 2939SOL     OW10236   0.413   6.627   5.378 -0.4880  0.3083 -0.0427
 2939SOL    HW110237   0.347   6.569   5.416  0.1220 -1.6306 -1.7623
 2939SOL    HW210238   0.362   6.698   5.338 -1.3529  0.1801  0.8043
 2940SOL     OW10239   3.480   2.426   7.350  0.3383  0.2880 -0.0514
 2940SOL    HW110240   3.385   2.415   7.352  0.5024 -1.5600 -0.5508
 2940SOL    HW210241   3.495   2.487   7.277 -0.4718  0.9207  0.2979
 2941SOL     OW10242   4.083   6.091   7.405  0.4882 -0.4649 -0.2632
 2941SOL    HW110243   4.051   6.161   7.462  1.8277  0.7153 -0.9082
 2941SOL    HW210244   4.003   6.054   7.365 -0.3488 -0.3449  1.2181
 2942SOL     OW10245   5.900   0.950   4.380 -0.0731  0.0715 -0.1634
 2942SOL    HW110246   5.949   0.867   4.380 -1.4473 -0.8915 -3.2176
 2942SOL    HW210247   5.813   0.926   4.412 -0.9231 -0.0695 -2.4405
 2943SOL     OW10248   4.878   0.784   6.510  0.7294 -0.5426  0.0280
 2943SOL    HW110249   4.950   0.782   6.447 -0.2239  0.0398 -1.1136
 2943SOL    HW210250   4.915   0.747   6.590  2.1255 -0.7880 -0.7063
 2944SOL     OW10251   4.592   1.597   0.397 -0.0809  0.2947  0.4973
 2944SOL    HW110252   4.512   1.590   0.345  0.4545 -0.2954 -0.2696
 2944SOL    HW210253   4.654   1.642   0.340  0.8034 -1.1835  0.2325
 2945SOL     OW10254   4.139   2.698   2.667  0.2295  0.4788  0.1378
 2945SOL    HW110255   4.210   2.661   2.614  0.8248 -0.5547  1.6029
 2945SOL    HW210256   4.154   2.793   2.663  0.8955  0.3539 -0.6449
 2946SOL     OW10257   5.379   4.460   5.749 -0.3287  0.3649  0.0306
 2946SOL    HW110258   5.472   4.479   5.746  0.0556 -1.3550 -0.3629
 2946SOL    HW210259   5.361   4.412   5.668 -1.5386  0.6006  0.1357
 2947SOL     OW10260   8.033   4.527   3.732 -0.2339  0.0503  0.0474
 2947SOL    HW110261   8.054   4.612   3.771 -1.1943 -0.8115  2.6604
 2947SOL    HW210262   7.957   4.497   3.782  0.4750 -2.6148 -0.3535
 2948SOL     OW10263   5.807   4.210   1.232  0.0751  0.1263  0.0119
 2948SOL    HW110264   5.749   4.248   1.166 -1.5919  0.1757  1.4224
 2948SOL    HW210265   5.847   4.286   1.275  0.0807  0.1427 -0.0227
 2949SOL     OW10266   5.010   1.831   3.422  0.3783  0.2243  0.1991
 2949SOL    HW110267   4.956   1.828   3.342  1.0449 -0.1551 -0.2451
 2949SOL    HW210268   5.051   1.745   3.426 -0.8492 -0.3425  1.8161
 2950SOL     OW10269   3.288   6.719   7.831  0.0043  0.5894  0.2302
 2950SOL    HW110270   3.354   6.788   7.834 -0.9199  1.4584  1.0236
 2950SOL    HW210271   3.211   6.756   7.873 -1.1447 -0.2634 -1.0064
 2951SOL     OW10272   5.022   0.892   6.269  0.1089 -0.4192  0.1042
 2951SOL    HW110273   5.092   0.882   6.204  0.3425  2.3295 -0.1833
 2951SOL    HW210274   5.056   0.957   6.331 -1.1602 -1.0329  1.5190
 2952SOL     OW10275   2.251   5.008   7.495  0.3343  0.2361  0.2705
 2952SOL    HW110276   2.248   4.932   7.437  0.0219  1.8316 -1.9127
 2952SOL    HW210277   2.167   5.007   7.540 -0.6322  0.5414 -1.4687
 2953SOL     OW10278   6.898   5.023   0.950  0.0588 -0.5885 -0.3057
 2953SOL    HW110279   6.811   4.992   0.973 -0.4562  0.7328 -0.3963
 2953SOL    HW210280   6.926   5.075   1.025 -0.2022  0.9009 -1.2176
 2954SOL     OW10281   8.027   5.932   5.115 -0.0200  0.3534  0.0504
 2954SOL    HW110282   8.038   6.020   5.079  0.3878  0.7978  1.1973
 2954SOL    HW210283   7.935   5.929   5.143  0.2887  0.9075  1.1936
 2955SOL     OW10284   3.831   3.618   1.360  0.6511 -0.8022  0.0470
 2955SOL    HW110285   3.890   3.691   1.375 -0.1494 -0.0770 -0.2552
 2955SOL    HW210286   3.813   3.620   1.266 -0.7020 -0.3355  0.2979
 2956SOL     OW10287   5.247   3.237   5.875  0.4130 -0.1000 -0.2660
 2956SOL    HW110288   5.248   3.321   5.922 -0.5442 -1.5352  2.5544
 2956SOL    HW210289   5.306   3.181   5.924  2.3156 -0.7265 -3.0564
 2957SOL     OW10290   3.729   6.897   3.349 -0.3064 -0.8085  1.1472
 2957SOL    HW110291   3.782   6.826   3.313 -1.8327 -1.6247  0.4127
 2957SOL    HW210292   3.789   6.972   3.354  0.1950 -0.7723 -2.5812
 2958SOL     OW10293   1.614   4.558   6.962  0.6654 -0.3624  0.3980
 2958SOL    HW110294   1.559   4.482   6.980 -1.2113  1.4269  2.9337
 2958SOL    HW210295   1.564   4.610   6.899  1.2764 -0.5010 -0.2225
 2959SOL     OW10296   8.057   3.571   3.879 -0.6414 -0.3252 -0.5291
 2959SOL    HW110297   7.993   3.642   3.879  0.1343  0.4114 -0.0534
 2959SOL    HW210298   8.033   3.516   3.953 -0.3376  0.3402  0.0836
 2960SOL     OW10299   2.201   1.772   6.240  0.3005  0.1308  0.2345
 2960SOL    HW110300   2.257   1.749   6.166  0.7091  2.2665 -0.1706
 2960SOL    HW210301   2.236   1.720   6.313  2.2407  0.7348 -0.2233
 2961SOL     OW10302   6.001   1.967   2.305 -0.3347  0.0303 -1.0126
 2961SOL    HW110303   5.979   2.060   2.300 -0.8563  0.0461  0.8422
 2961SOL    HW210304   6.074   1.962   2.366 -0.9277 -0.8525 -0.3374
 2962SOL     OW10305   3.482   2.087   4.152  0.2180 -0.1188  0.4770
 2962SOL    HW110306   3.428   2.133   4.216  1.3633  1.8217  0.1083
 2962SOL    HW210307   3.445   1.998   4.150 -1.8005  0.6247  1.5265
 2963SOL     OW10308   0.424   3.711   4.894  0.4916  0.2277  0.1293
 2963SOL    HW110309   0.364   3.651   4.850  0.1941  0.3043  0.4307
 2963SOL    HW210310   0.509   3.667   4.889  0.2849 -0.2039  0.3149
 2964SOL     OW10311   6.788   6.072   4.972  0.0946 -1.1073 -0.0293
 2964SOL    HW110312   6.868   6.039   5.014  0.8861 -0.1667 -0.7492
 2964SOL    HW210313   6.738   5.993   4.949  0.8574 -1.7090  0.3313
 2965SOL     OW10314   3.676   1.557   2.944  0.6135  0.6070  0.3768
 2965SOL    HW110315   3.594   1.527   2.984  1.1259 -0.4920  0.6438
 2965SOL    HW210316   3.697   1.490   2.879  1.8117  0.3157  1.0256
 2966SOL     OW10317   2.786   8.042   1.044 -0.4491  0.3690  0.1953
 2966SOL    HW110318   2.776   7.947   1.050 -0.4906  0.4181  0.9576
 2966SOL    HW210319   2.850   8.055   0.974  1.1351 -0.3056  1.4728
 2967SOL     OW10320   2.805   7.369   1.158 -0.0637 -0.2405 -0.1439
 2967SOL    HW110321   2.721   7.369   1.204  0.2773  0.6448  0.4995
 2967SOL    HW210322   2.783   7.399   1.069 -0.2930  0.9579  0.3024
 2968SOL     OW10323   4.136   3.351   2.274  0.0498 -0.3705  0.4907
 2968SOL    HW110324   4.162   3.287   2.208 -1.0024 -1.2630  0.9087
 2968SOL    HW210325   4.192   3.427   2.257 -0.9400 -0.1159 -2.1732
 2969SOL     OW10326   0.245   5.584   6.378 -0.2047  0.0370 -0.6196
 2969SOL    HW110327   0.162   5.613   6.415 -1.6595 -1.5684 -2.3902
 2969SOL    HW210328   0.277   5.660   6.330  0.3002  1.2273  1.4712
 2970SOL     OW10329   2.703   6.065   5.464 -0.3333  0.2090 -0.1288
 2970SOL    HW110330   2.745   6.059   5.550  0.0489  0.6221 -0.2795
 2970SOL    HW210331   2.610   6.070   5.483 -0.1613  2.9673  0.4445
 2971SOL     OW10332   7.309   6.930   7.421 -0.5369  0.3607  0.3467
 2971SOL    HW110333   7.255   7.001   7.457 -1.1883  1.0936 -1.9256
 2971SOL    HW210334   7.247   6.860   7.401 -0.2184  0.0595  0.4078
 2972SOL     OW10335   6.678   7.182   6.716  0.1204 -0.5104  0.1404
 2972SOL    HW110336   6.736   7.170   6.791 -0.4847 -0.2346  0.6669
 2972SOL    HW210337   6.616   7.109   6.721 -1.2186  0.6267  1.1542
 2973SOL     OW10338   6.489   4.029   2.770  0.0170 -0.2549  0.0887
 2973SOL    HW110339   6.514   3.943   2.802  1.0489  0.6337  1.8137
 2973SOL    HW210340   6.545   4.043   2.693  2.8145  0.4463  2.1124
 2974SOL     OW10341   0.074   1.542   1.397 -0.0869 -0.6118  0.1788
 2974SOL    HW110342  -0.007   1.512   1.355  0.2842  0.3567 -1.3263
 2974SOL    HW210343   0.143   1.515   1.336  0.5501  0.2220  0.5212
 2975SOL     OW10344   5.107   1.745   5.065  0.1799  0.1551  0.8429
 2975SOL    HW110345   5.140   1.662   5.030 -0.7827 -0.8158  2.1546
 2975SOL    HW210346   5.035   1.769   5.007 -0.7194 -0.8853  1.5129
 2976SOL     OW10347   7.536   4.551   5.130  0.5014  0.0891  0.6269
 2976SOL    HW110348   7.474   4.506   5.071  2.2423 -2.2539  0.4201
 2976SOL    HW210349   7.491   4.631   5.155 -2.3967 -1.2203  0.0833
 2977SOL     OW10350   6.560   3.232   7.649 -0.2949  0.2612 -0.1871
 2977SOL    HW110351   6.478   3.183   7.639  0.4866 -1.1066 -0.1896
 2977SOL    HW210352   6.571   3.241   7.743 -2.2199  3.6676 -0.1224
 2978SOL     OW10353   1.209   5.613   2.445 -0.1904  0.0436  0.0533
 2978SOL    HW110354   1.293   5.582   2.478 -0.0958  0.9560  0.7220
 2978SOL    HW210355   1.158   5.534   2.430  0.5211 -0.4861  0.3681
 2979SOL     OW10356   2.288   0.250   5.673 -0.4788 -0.0102 -0.3901
 2979SOL    HW110357   2.215   0.303   5.642 -0.8323 -2.1078 -3.5656
 2979SOL    HW210358   2.345   0.238   5.597  1.3020 -1.4059  1.0475
 2980SOL     OW10359   7.236   3.895   6.982  0.4517 -0.2208  0.6167
 2980SOL    HW110360   7.329   3.919   6.986  0.9323 -1.8548 -0.0712
 2980SOL    HW210361   7.195   3.967   6.933  1.8870 -0.8317 -1.6244
 2981SOL     OW10362   0.271   6.437   0.391  0.3768 -0.8267 -0.0023
 2981SOL    HW110363   0.281   6.414   0.483 -1.0492  0.7678  0.6099
 2981SOL    HW210364   0.361   6.441   0.357  0.9088 -1.5985  1.2595
 2982SOL     OW10365   3.743   3.359   5.836  0.2083  0.1182 -0.3516
 2982SOL    HW110366   3.681   3.309   5.783  0.6626  0.0425 -0.8318
 2982SOL    HW210367   3.742   3.317   5.922  1.0462 -1.1445 -0.9221
 2983SOL     OW10368   6.893   2.237   4.145 -0.7698  0.4195 -0.2748
 2983SOL    HW110369   6.975   2.282   4.165 -0.6393  0.0320  0.0883
 2983SOL    HW210370   6.877   2.181   4.221 -0.6812 -0.5027 -0.9133
 2984SOL     OW10371   6.791   7.574   7.264  0.6931  0.0219  0.2091
 2984SOL    HW110372   6.763   7.486   7.239 -0.7510 -0.4092  2.9956
 2984SOL    HW210373   6.846   7.603   7.191 -1.4253 -1.8691 -2.3366
 2985SOL     OW10374   0.724   3.128   7.936 -0.5260 -1.0400 -1.0163
 2985SOL    HW110375   0.791   3.061   7.939 -0.2262 -0.7388 -0.9287
 2985SOL    HW210376   0.770   3.207   7.908 -0.8306 -0.8200 -0.9032
 2986SOL     OW10377   1.208   0.560   0.774  0.8517  0.1407 -0.4827
 2986SOL    HW110378   1.261   0.483   0.791 -1.6418 -1.7689 -0.7818
 2986SOL    HW210379   1.168   0.581   0.858 -2.0721 -1.8704 -1.2244
 2987SOL     OW10380   2.697   1.765   2.215  0.2776  0.1468 -0.2322
 2987SOL    HW110381   2.688   1.694   2.279  0.7462  0.0327 -0.2901
 2987SOL    HW210382   2.613   1.765   2.168 -0.1260  0.3294  0.4719
 2988SOL     OW10383   6.464   3.221   3.241 -0.1889  0.1170  0.0984
 2988SOL    HW110384   6.448   3.127   3.239 -0.3556  0.1372  0.4391
 2988SOL    HW210385   6.472   3.243   3.334 -2.6419  0.8428  0.2184
 2989SOL     OW10386   0.568   0.827   3.304 -0.7227 -0.4626 -0.0117
 2989SOL    HW110387   0.541   0.914   3.334 -1.9545 -0.7898 -0.1077
 2989SOL    HW210388   0.541   0.768   3.374 -0.2742 -0.8171 -0.1365
 2990SOL     OW10389   0.081   1.322   3.681  0.9283  0.3988  0.3000
 2990SOL    HW110390   0.085   1.306   3.587 -2.1391 -0.1771  0.1771
 2990SOL    HW210391   0.104   1.237   3.721  2.9288  0.8259  0.1619
 2991SOL     OW10392   1.958   2.904   1.123  0.8721  0.2514  0.8171
 2991SOL    HW110393   1.994   2.868   1.204  0.6684 -0.4123  0.6241
 2991SOL    HW210394   1.866   2.876   1.124  0.9426 -0.0136  0.2226
 2992SOL     OW10395   3.010   1.153   5.795 -0.2895  0.3863 -0.3600
 2992SOL    HW110396   3.053   1.078   5.754 -0.7678 -1.3523  2.0860
 2992SOL    HW210397   3.060   1.169   5.875 -0.5071  2.4023 -0.5779
 2993SOL     OW10398   3.313   6.978   5.788  0.2726  0.4675 -0.8463
 2993SOL    HW110399   3.361   7.019   5.716  1.2805  1.4581  0.3402
 2993SOL    HW210400   3.352   7.015   5.867 -1.6998  0.4391  0.2037
 2994SOL     OW10401   6.723   3.148   2.273 -0.0768  0.0757 -0.7486
 2994SOL    HW110402   6.740   3.123   2.182 -0.3919 -1.0059 -0.5204
 2994SOL    HW210403   6.657   3.086   2.303 -0.4772  0.8524  0.0204
 2995SOL     OW10404   1.228   4.794   7.479 -0.0797 -0.6014  1.1364
 2995SOL    HW110405   1.176   4.809   7.399  1.7003  0.9850  0.1979
 2995SOL    HW210406   1.274   4.712   7.462 -0.2949 -0.6681  0.8552
 2996SOL     OW10407   3.423   2.722   3.396  0.5923  0.1437 -0.3261
 2996SOL    HW110408   3.332   2.740   3.373  0.3109 -1.3380 -0.4941
 2996SOL    HW210409   3.443   2.640   3.351  2.3504  0.9548 -1.1180
 2997SOL     OW10410   6.417   4.602   7.048 -0.2228  0.1745  0.0123
 2997SOL    HW110411   6.416   4.697   7.045  1.8382  0.4295  3.0969
 2997SOL    HW210412   6.408   4.575   6.956 -1.0617  3.2787 -0.9329
 2998SOL     OW10413   2.661   1.754   0.832  0.2958 -0.0585  0.2219
 2998SOL    HW110414   2.659   1.841   0.873 -0.8968  0.5398 -1.0146
 2998SOL    HW210415   2.572   1.720   0.845  0.5015 -0.7186 -0.0822
 2999SOL     OW10416   7.199   5.638   5.252  0.0336  0.1696  0.3665
 2999SOL    HW110417   7.119   5.599   5.216 -0.5554  0.3149  1.4783
 2999SOL    HW210418   7.173   5.671   5.338  1.5777 -0.8825  1.2854
 3000SOL     OW10419   3.845   0.371   1.598  0.3486  0.0844  0.0402
 3000SOL    HW110420   3.876   0.462   1.599  0.3506  0.1313  2.5316
 3000SOL    HW210421   3.810   0.359   1.510 -0.8978  2.9416  0.0307
 3001SOL     OW10422   4.381   2.502   6.188  0.0932 -0.5376 -0.0274
 3001SOL    HW110423   4.412   2.577   6.137 -2.5193  0.5151 -0.2462
 3001SOL    HW210424   4.389   2.427   6.129  0.9540 -0.1020 -0.4860
 3002SOL     OW10425   6.998   0.604   4.436  0.1110  0.3919  0.3674
 3002SOL    HW110426   6.977   0.695   4.457  2.5150  1.1433 -0.1586
 3002SOL    HW210427   7.015   0.604   4.342  0.4352 -0.5458  0.4150
 3003SOL     OW10428   6.060   0.248   5.299 -0.5060  0.5662 -0.2836
 3003SOL    HW110429   6.115   0.325   5.285  0.9809 -0.4352 -0.2415
 3003SOL    HW210430   5.984   0.280   5.348  0.1268  1.9636 -0.1758
 3004SOL     OW10431   0.585   7.672   7.515 -0.4580  0.2797  0.5246
 3004SOL    HW110432   0.611   7.611   7.583 -1.4611  1.9647  2.5373
 3004SOL    HW210433   0.667   7.715   7.488  0.0542 -0.9703  0.0228
 3005SOL     OW10434   0.013   3.321   6.399  0.4520 -0.1633  0.3251
 3005SOL    HW110435   0.109   3.324   6.390  0.5084 -1.8477  0.1848
 3005SOL    HW210436  -0.019   3.307   6.310  0.0750  0.2308  0.3975
 3006SOL     OW10437   6.622   4.998   1.767 -0.0339  0.2011  0.0189
 3006SOL    HW110438   6.582   4.965   1.686  1.0287  0.6246 -0.7136
 3006SOL    HW210439   6.550   5.040   1.814 -1.0400 -1.5600  0.1392
 3007SOL     OW10440   0.903   4.006   3.721 -0.4298  0.2653  0.1449
 3007SOL    HW110441   0.969   4.062   3.762  0.3657 -1.2607  1.0120
 3007SOL    HW210442   0.923   4.010   3.627 -0.2370  1.2217  0.2188
 3008SOL     OW10443   3.986   0.659   5.998  0.4391 -0.1329 -0.1616
 3008SOL    HW110444   4.037   0.650   6.078  0.9864 -0.0415 -0.4911
 3008SOL    HW210445   3.964   0.752   5.994 -0.0531 -0.2370  0.1614
 3009SOL     OW10446   0.003   3.756   0.087 -0.6068 -0.5615  0.6178
 3009SOL    HW110447   0.098   3.759   0.075 -0.6091 -2.1508 -0.0526
 3009SOL    HW210448  -0.012   3.674   0.134 -1.5753  0.2007  1.6672
 3010SOL     OW10449   1.804   7.452   1.653 -0.0085 -0.0459  0.8697
 3010SOL    HW110450   1.767   7.534   1.683 -0.4465  0.1121 -0.0567
 3010SOL    HW210451   1.741   7.385   1.680 -1.2389  0.2616 -1.0502
 3011SOL     OW10452   6.289   2.404   6.670  0.1321  0.2846  0.6042
 3011SOL    HW110453   6.262   2.312   6.661 -0.6005  0.5487 -0.0326
 3011SOL    HW210454   6.308   2.432   6.581  0.6790  0.6594  0.8374
 3012SOL     OW10455   6.295   6.163   7.909  0.1563  0.3903  0.2041
 3012SOL    HW110456   6.355   6.206   7.848 -0.8745 -0.5729 -1.5727
 3012SOL    HW210457   6.351   6.139   7.983  1.4789  1.5163 -0.3628
 3013SOL     OW10458   4.073   0.446   4.725  0.3147  0.1780 -0.3273
 3013SOL    HW110459   4.137   0.511   4.695 -0.2142  0.3973 -1.0273
 3013SOL    HW210460   4.012   0.437   4.651  1.2797 -2.3202 -0.9098
 3014SOL     OW10461   1.860   3.238   3.560 -0.0555 -0.1408  0.3532
 3014SOL    HW110462   1.883   3.154   3.521 -2.7672 -1.3156  1.0575
 3014SOL    HW210463   1.774   3.258   3.525  0.4019  2.2516  0.4246
 3015SOL     OW10464   4.784   1.632   3.712 -0.3054  0.8322 -0.1892
 3015SOL    HW110465   4.831   1.608   3.791 -0.6014  0.5974 -0.0817
 3015SOL    HW210466   4.817   1.572   3.645  0.2402  1.2970 -0.3463
 3016SOL     OW10467   5.635   4.717   4.027  0.5078  0.0726  0.0320
 3016SOL    HW110468   5.632   4.687   3.936 -0.1916  0.1190  0.0359
 3016SOL    HW210469   5.726   4.704   4.053  0.9460  0.9675 -0.9694
 3017SOL     OW10470   5.810   3.831   7.534  0.4314 -0.1483  0.2221
 3017SOL    HW110471   5.759   3.760   7.573  1.0671 -0.1387  1.1053
 3017SOL    HW210472   5.866   3.862   7.605  1.5933 -0.0919 -0.6908
 3018SOL     OW10473   1.865   3.544   7.617  0.0135 -0.2565 -0.2785
 3018SOL    HW110474   1.879   3.490   7.695 -0.0557  0.4546  0.2367
 3018SOL    HW210475   1.775   3.525   7.590  0.4714 -1.5136 -0.9905
 3019SOL     OW10476   1.832   6.744   7.075  0.0184 -0.3011  0.2281
 3019SOL    HW110477   1.761   6.772   7.017 -1.7065 -0.8662  1.9399
 3019SOL    HW210478   1.911   6.782   7.037 -1.2465  0.7362 -1.5236
 3020SOL     OW10479   5.045   6.326   1.648  0.1104  0.0940  0.2869
 3020SOL    HW110480   5.091   6.400   1.608 -1.2732 -0.6274 -2.9832
 3020SOL    HW210481   5.108   6.255   1.645  0.2700  0.2414  0.0967
 3021SOL     OW10482   5.280   5.558   5.845  0.1760  0.0786 -0.7203
 3021SOL    HW110483   5.359   5.513   5.814 -0.5864 -1.7512 -0.1888
 3021SOL    HW210484   5.218   5.552   5.772  0.2652  0.8296 -0.8626
 3022SOL     OW10485   5.123   0.441   5.820 -0.4892  0.2728  0.0681
 3022SOL    HW110486   5.133   0.468   5.911 -1.0611  0.9636 -0.0707
 3022SOL    HW210487   5.030   0.450   5.802 -0.3622  0.2477 -0.6250
 3023SOL     OW10488   6.284   2.750   0.225  0.2165 -0.1269 -0.4726
 3023SOL    HW110489   6.194   2.735   0.253  0.7301  1.6061  2.4765
 3023SOL    HW210490   6.325   2.663   0.228 -0.8574 -0.6290  0.1609
 3024SOL     OW10491   4.185   7.143   2.577 -0.6448 -0.5541 -0.5745
 3024SOL    HW110492   4.271   7.101   2.579 -0.7602 -0.7978 -0.8067
 3024SOL    HW210493   4.127   7.081   2.621 -0.4915  0.0893  0.5724
 3025SOL     OW10494   8.021   2.081   3.550 -0.4180  0.1202 -0.3119
 3025SOL    HW110495   8.112   2.076   3.522  0.1252 -1.5103  1.5761
 3025SOL    HW210496   8.002   1.995   3.588 -3.1718 -0.0636 -1.8292
 3026SOL     OW10497   0.196   5.809   0.901  0.3752  0.2590 -0.1464
 3026SOL    HW110498   0.243   5.891   0.891 -1.3560  1.4578  1.0368
 3026SOL    HW210499   0.156   5.793   0.815  0.8926  0.5336 -0.4391
 3027SOL     OW10500   0.424   6.439   2.601  0.1114  0.2380 -0.3723
 3027SOL    HW110501   0.452   6.380   2.671 -0.1375  1.2409  0.5987
 3027SOL    HW210502   0.432   6.387   2.521 -0.1197 -1.1162  0.4513
 3028SOL     OW10503   5.460   1.155   2.176  0.2917  0.2110  0.2588
 3028SOL    HW110504   5.448   1.172   2.083  0.2984 -0.2582  0.1719
 3028SOL    HW210505   5.449   1.061   2.185  2.3026 -0.0612  0.4031
 3029SOL     OW10506   6.691   6.346   3.987 -0.0912  0.1839  0.0724
 3029SOL    HW110507   6.648   6.315   3.907  0.1054 -1.2937  0.5029
 3029SOL    HW210508   6.624   6.339   4.055  0.5364 -1.3509  0.5842
 3030SOL     OW10509   2.536   0.695   2.182  0.2372 -0.0812 -0.3800
 3030SOL    HW110510   2.548   0.769   2.242  0.5330  1.8070 -2.5944
 3030SOL    HW210511   2.441   0.691   2.169  0.1312 -0.8026  0.5301
 3031SOL     OW10512   7.912   3.384   0.807 -0.3167  0.3606  0.0925
 3031SOL    HW110513   7.878   3.399   0.895  0.9612  0.2268  0.6266
 3031SOL    HW210514   8.007   3.385   0.817 -0.1440 -1.6796 -0.9452
 3032SOL     OW10515   2.415   3.324   5.129 -0.0639  0.1725 -0.2121
 3032SOL    HW110516   2.472   3.400   5.119  0.7522 -0.3586  0.3598
 3032SOL    HW210517   2.444   3.263   5.061 -1.5548  0.8458 -1.5268
 3033SOL     OW10518   1.380   5.344   4.943 -0.1595 -0.7246  0.3100
 3033SOL    HW110519   1.443   5.273   4.939 -1.4857 -2.2378  3.1258
 3033SOL    HW210520   1.434   5.423   4.948  1.4984 -1.8475  1.1904
 3034SOL     OW10521   0.831   2.320   5.231  0.6746 -0.0254  0.0770
 3034SOL    HW110522   0.818   2.330   5.325  0.0332  2.4121 -0.2094
 3034SOL    HW210523   0.745   2.337   5.193  0.7283 -1.8106 -0.9549
 3035SOL     OW10524   5.813   2.108   1.143  0.0977  0.2090  0.4085
 3035SOL    HW110525   5.877   2.052   1.100 -1.5910  0.0058 -2.1080
 3035SOL    HW210526   5.865   2.170   1.194  2.3243  0.0927 -1.5422
 3036SOL     OW10527   4.996   1.200   0.136  0.2177  0.0957 -0.8727
 3036SOL    HW110528   5.082   1.244   0.140  0.4787 -0.2923 -1.9455
 3036SOL    HW210529   4.989   1.155   0.220  0.7492  0.7135 -0.4829
 3037SOL     OW10530   7.952   0.170   5.931 -0.2747  0.1104 -0.3305
 3037SOL    HW110531   7.921   0.258   5.952 -0.9359 -0.8757  3.5939
 3037SOL    HW210532   7.873   0.121   5.911 -0.1792 -0.2004  0.0575
 3038SOL     OW10533   3.753   1.136   0.079  0.1213 -0.1036 -0.2042
 3038SOL    HW110534   3.823   1.161   0.018  1.0385  1.0278  1.2335
 3038SOL    HW210535   3.799   1.094   0.152 -0.3967  2.3921  1.6884
 3039SOL     OW10536   1.419   5.139   1.070 -0.2420 -0.2681  0.1675
 3039SOL    HW110537   1.382   5.144   0.982 -0.2244  0.2714  0.1872
 3039SOL    HW210538   1.510   5.167   1.060 -0.6185  1.1834  0.5746
 3040SOL     OW10539   2.448   0.965   0.584 -0.2264 -0.0633 -0.4495
 3040SOL    HW110540   2.416   1.032   0.645  0.4382  0.3010 -0.4897
 3040SOL    HW210541   2.514   1.011   0.532 -0.2086 -0.5916 -0.8917
 3041SOL     OW10542   1.692   1.447   4.111  0.2120 -0.2401 -0.0703
 3041SOL    HW110543   1.663   1.369   4.158  0.5975 -0.0562  0.4904
 3041SOL    HW210544   1.611   1.487   4.080 -0.0641 -0.3090  0.5404
 3042SOL     OW10545   0.568   7.526   0.500  0.2613  0.0188 -0.3446
 3042SOL    HW110546   0.646   7.475   0.479 -0.9239 -2.0535  0.0077
 3042SOL    HW210547   0.534   7.555   0.415  0.3360 -0.7755 -0.6548
 3043SOL     OW10548   7.594   5.218   5.594 -0.6286 -0.0962  0.2617
 3043SOL    HW110549   7.650   5.198   5.519 -1.2078  1.0661 -0.5124
 3043SOL    HW210550   7.628   5.301   5.627 -1.2151  0.0724  0.4461
 3044SOL     OW10551   2.853   4.572   7.978  0.4410  0.1538  0.8018
 3044SOL    HW110552   2.884   4.662   7.989  1.7061 -0.1050 -0.3747
 3044SOL    HW210553   2.840   4.563   7.884 -1.5402 -0.3387  1.0709
 3045SOL     OW10554   1.698   3.653   4.569 -0.0502 -0.3827 -0.2313
 3045SOL    HW110555   1.779   3.622   4.610  0.6107  2.1543  0.5708
 3045SOL    HW210556   1.629   3.600   4.609  0.7783  0.4798  2.5819
 3046SOL     OW10557   7.977   6.401   2.640  0.2693 -0.0852  0.7279
 3046SOL    HW110558   8.052   6.442   2.597 -0.1474 -0.1630 -0.1060
 3046SOL    HW210559   8.005   6.386   2.730  1.3521 -0.3704  0.3556
 3047SOL     OW10560   3.255   1.326   2.193 -0.4639 -0.3051  0.1427
 3047SOL    HW110561   3.247   1.237   2.228 -3.1720  0.3755  1.5584
 3047SOL    HW210562   3.188   1.331   2.124  0.0272  0.5041 -0.2988
 3048SOL     OW10563   3.366   7.225   0.968  0.6383 -0.1836  0.3369
 3048SOL    HW110564   3.405   7.167   0.903  0.4444 -0.7672  0.7232
 3048SOL    HW210565   3.309   7.167   1.020 -0.7050  0.6334 -0.1838
 3049SOL     OW10566   4.233   1.707   5.936 -0.2561  0.2080  0.2546
 3049SOL    HW110567   4.150   1.742   5.968  0.4896  1.8158  0.5721
 3049SOL    HW210568   4.213   1.618   5.908 -2.3448  0.9318 -0.7875
 3050SOL     OW10569   5.005   2.269   5.073  0.1252  0.3728  0.0621
 3050SOL    HW110570   5.094   2.253   5.104  0.2546  1.8038  0.4944
 3050SOL    HW210571   4.950   2.221   5.136  0.5806 -0.9239 -0.4909
 3051SOL     OW10572   5.077   5.881   4.752 -0.6396 -0.0687  0.5572
 3051SOL    HW110573   5.121   5.798   4.771 -1.4217 -0.1230  2.3902
 3051SOL    HW210574   5.134   5.948   4.789 -0.6594  0.0967  0.2892
 3052SOL     OW10575   4.895   7.948   0.930  0.3706  0.6117 -0.0424
 3052SOL    HW110576   4.984   7.911   0.929  0.3542  0.4972  1.2096
 3052SOL    HW210577   4.870   7.947   1.023 -0.5772  1.5279 -0.2785
 3053SOL     OW10578   4.300   3.414   4.321  0.3314 -0.0900 -0.1257
 3053SOL    HW110579   4.293   3.323   4.348  2.0908 -0.1984  0.0465
 3053SOL    HW210580   4.262   3.416   4.233 -0.4891 -0.7932  0.1948
 3054SOL     OW10581   7.974   5.315   1.688  0.1883 -0.0587  0.4678
 3054SOL    HW110582   7.888   5.353   1.667  0.8785  0.5223 -1.4689
 3054SOL    HW210583   8.034   5.355   1.626  1.3886 -2.5643 -0.1065
 3055SOL     OW10584   6.354   7.361   6.670  0.0676 -0.7298  0.4155
 3055SOL    HW110585   6.274   7.309   6.672 -1.5959  1.6985  0.9235
 3055SOL    HW210586   6.383   7.367   6.761 -0.0773 -0.3199  0.4391
 3056SOL     OW10587   4.734   1.850   4.040 -0.6443  0.0890  0.2369
 3056SOL    HW110588   4.797   1.830   3.971 -1.6299 -1.6834 -0.2163
 3056SOL    HW210589   4.784   1.903   4.103  0.5591  0.8535 -1.2994
 3057SOL     OW10590   0.447   6.731   4.231  0.0100  0.5619  0.2905
 3057SOL    HW110591   0.535   6.750   4.200  0.5278 -0.9454  0.7400
 3057SOL    HW210592   0.401   6.698   4.153  0.0633  0.6843  0.2075
 3058SOL     OW10593   5.151   1.369   6.298 -0.0068 -0.0981 -0.0344
 3058SOL    HW110594   5.075   1.374   6.240  0.0768 -0.5084 -0.1876
 3058SOL    HW210595   5.134   1.434   6.366 -0.9343 -0.8252  0.4493
 3059SOL     OW10596   4.550   1.818   6.946 -0.4403 -0.0850 -0.1557
 3059SOL    HW110597   4.455   1.809   6.946 -0.3634 -0.9246 -0.2039
 3059SOL    HW210598   4.566   1.894   6.890 -1.0743 -0.0206 -0.2590
 3060SOL     OW10599   6.330   5.237   3.761  0.1426  0.1579 -0.4854
 3060SOL    HW110600   6.265   5.206   3.698 -0.5031 -2.9032  1.5088
 3060SOL    HW210601   6.379   5.304   3.713 -2.3604  0.3097 -3.1171
 3061SOL     OW10602   0.490   3.416   6.028  0.0016 -0.5299 -0.3382
 3061SOL    HW110603   0.524   3.453   5.946  0.8301 -0.3198  0.0909
 3061SOL    HW210604   0.450   3.491   6.073  1.9490 -0.0271  0.6711
 3062SOL     OW10605   2.757   3.523   7.678  0.5004 -0.0796 -0.8218
 3062SOL    HW110606   2.754   3.449   7.618 -0.4611 -1.0826  0.4074
 3062SOL    HW210607   2.818   3.495   7.747  0.4318  0.4352 -0.5505
 3063SOL     OW10608   5.873   3.339   3.737 -0.3573 -0.3320  0.2533
 3063SOL    HW110609   5.908   3.251   3.747  2.8960  0.8504  0.3947
 3063SOL    HW210610   5.902   3.386   3.815  1.0310  1.7113 -1.3801
 3064SOL     OW10611   7.349   0.818   1.442  0.4425  0.0163  0.7129
 3064SOL    HW110612   7.324   0.774   1.523  0.1563 -0.3604  0.4187
 3064SOL    HW210613   7.445   0.822   1.446  0.4407 -0.1780  0.9760
 3065SOL     OW10614   7.356   2.225   6.413  0.0542 -0.3557  0.0172
 3065SOL    HW110615   7.373   2.186   6.327 -0.8962  0.5000 -0.5849
 3065SOL    HW210616   7.357   2.151   6.474  1.4964 -0.8875 -0.6004
 3066SOL     OW10617   7.739   5.900   5.079  0.4335  0.0982  0.4483
 3066SOL    HW110618   7.682   5.825   5.063  2.6615 -1.7580  0.7084
 3066SOL    HW210619   7.766   5.929   4.991  0.9320 -0.5557  0.3748
 3067SOL     OW10620   1.608   7.607   2.762 -0.1108 -0.2123 -0.0625
 3067SOL    HW110621   1.580   7.680   2.707 -0.0216  0.6616  0.9982
 3067SOL    HW210622   1.692   7.635   2.798  0.3325 -1.2131 -0.3055
 3068SOL     OW10623   2.774   3.652   4.176 -0.3479  0.1576 -0.1910
 3068SOL    HW110624   2.749   3.741   4.200  0.3113  0.5196 -0.8053
 3068SOL    HW210625   2.822   3.619   4.252  1.2236  1.0826 -0.7344
 3069SOL     OW10626   4.351   1.151   3.088  0.6504 -0.8506  0.2991
 3069SOL    HW110627   4.413   1.078   3.085  0.1105 -1.4609  2.4541
 3069SOL    HW210628   4.375   1.200   3.166 -0.7363 -0.3439  0.4402
 3070SOL     OW10629   7.549   6.804   3.528 -0.2162  0.2147 -0.1696
 3070SOL    HW110630   7.579   6.885   3.570  0.3295 -0.7791  1.4652
 3070SOL    HW210631   7.516   6.751   3.600 -1.4365 -0.6699 -1.3421
 3071SOL     OW10632   6.957   7.483   4.449 -0.8581 -0.0943  0.3561
 3071SOL    HW110633   6.903   7.434   4.386 -1.2382  0.6364  0.1053
 3071SOL    HW210634   6.981   7.418   4.515 -1.4413 -0.5968  0.0851
 3072SOL     OW10635   5.935   7.277   6.982 -0.0138 -0.2298  0.2397
 3072SOL    HW110636   5.914   7.189   7.013 -0.5263 -0.1819  0.0545
 3072SOL    HW210637   5.934   7.331   7.060  0.8945 -0.4920  0.4359
 3073SOL     OW10638   2.972   1.476   7.633  0.5497 -0.3858  0.2207
 3073SOL    HW110639   2.877   1.474   7.637  0.5324 -2.7150 -0.1050
 3073SOL    HW210640   2.997   1.542   7.698 -1.2627  0.7738 -0.1716
 3074SOL     OW10641   1.020   6.334   3.533 -0.3623 -0.3025  0.2857
 3074SOL    HW110642   0.977   6.270   3.476 -1.6199 -0.9703  1.9375
 3074SOL    HW210643   1.040   6.286   3.613  1.0553  0.7205  0.5931
 3075SOL     OW10644   5.016   7.105   4.833 -0.0328 -0.5734 -0.1575
 3075SOL    HW110645   4.951   7.035   4.820 -0.0186 -0.3555 -1.5445
 3075SOL    HW210646   5.094   7.072   4.789  1.0889 -1.1432  2.0757
 3076SOL     OW10647   4.468   2.221   0.217 -0.1304  0.5523  0.1578
 3076SOL    HW110648   4.450   2.129   0.236  0.5970  0.4355  0.2837
 3076SOL    HW210649   4.392   2.250   0.167 -0.9080  0.1931  1.0900
 3077SOL     OW10650   2.214   6.224   7.050  0.8464  0.1018 -0.7355
 3077SOL    HW110651   2.183   6.253   7.136  1.7943 -0.4400 -0.1874
 3077SOL    HW210652   2.292   6.276   7.034  2.0173 -1.3877 -0.1753
 3078SOL     OW10653   5.800   1.176   2.778 -0.4171 -0.3343 -0.4463
 3078SOL    HW110654   5.743   1.099   2.783 -1.6331  0.5329 -0.2961
 3078SOL    HW210655   5.780   1.224   2.859  1.1188 -0.3785 -0.0146
 3079SOL     OW10656   6.417   0.323   1.717  0.0844  0.3535  0.4390
 3079SOL    HW110657   6.389   0.415   1.719 -1.7604 -0.1571  2.4734
 3079SOL    HW210658   6.381   0.288   1.635 -1.2406  0.9082  0.7565
 3080SOL     OW10659   2.058   0.812   2.170  0.4200 -0.3502  0.5672
 3080SOL    HW110660   2.109   0.856   2.238  0.6514  1.8852 -0.9360
 3080SOL    HW210661   1.975   0.861   2.166  1.1764  0.9236 -2.0272
 3081SOL     OW10662   0.283   1.190   1.076  0.6606  0.0995 -0.3305
 3081SOL    HW110663   0.331   1.107   1.081 -0.2957 -0.4550 -0.2033
 3081SOL    HW210664   0.192   1.164   1.066  0.4070  1.1467 -0.8243
 3082SOL     OW10665   7.790   7.934   2.961  0.4459  0.1688 -0.1319
 3082SOL    HW110666   7.786   7.849   2.917 -1.5186  0.5815 -0.8532
 3082SOL    HW210667   7.765   7.914   3.052  1.0164 -0.1664 -0.0442
 3083SOL     OW10668   2.814   2.199   0.269 -0.1558 -0.6168  0.1265
 3083SOL    HW110669   2.749   2.134   0.245  0.4070 -0.7447 -1.1145
 3083SOL    HW210670   2.883   2.150   0.314 -0.6774 -0.5509  1.0201
 3084SOL     OW10671   0.934   1.969   3.302 -0.3305 -0.2513 -0.5107
 3084SOL    HW110672   0.883   2.002   3.228 -1.0742 -1.6983 -0.6793
 3084SOL    HW210673   0.873   1.971   3.376 -0.7553 -2.2001 -0.7642
 3085SOL     OW10674   7.990   1.227   8.031 -0.2630 -0.1352  0.5949
 3085SOL    HW110675   8.084   1.236   8.048 -0.1834  0.3988 -0.0845
 3085SOL    HW210676   7.985   1.172   7.953 -0.4488  0.9593 -0.1890
 3086SOL     OW10677   1.556   3.476   4.051 -0.5214 -0.6305 -0.0010
 3086SOL    HW110678   1.640   3.521   4.052 -1.1073  0.4926  0.3520
 3086SOL    HW210679   1.491   3.546   4.042 -1.5856 -1.1320  2.6869
 3087SOL     OW10680   4.250   6.806   7.125  0.4637 -0.0987  0.4581
 3087SOL    HW110681   4.294   6.768   7.049 -0.2412 -1.2581  0.6006
 3087SOL    HW210682   4.320   6.815   7.190  0.5821 -1.7171  0.6095
 3088SOL     OW10683   6.304   0.016   5.764 -0.0618 -0.0987 -0.0448
 3088SOL    HW110684   6.318  -0.021   5.852 -2.1733  1.0379  0.8428
 3088SOL    HW210685   6.309  -0.060   5.705 -1.5886 -1.4340  1.4223
 3089SOL     OW10686   1.498   0.223   2.464  0.0537  0.2358  0.4671
 3089SOL    HW110687   1.495   0.311   2.500 -0.1979  0.0474  0.9194
 3089SOL    HW210688   1.575   0.222   2.407  0.0239  0.7597  0.4187
 3090SOL     OW10689   5.461   0.439   0.803  0.0947 -0.3972 -0.5942
 3090SOL    HW110690   5.435   0.472   0.889 -0.5193  0.7118 -1.1853
 3090SOL    HW210691   5.387   0.460   0.746  1.3302  0.7726 -1.8317
 3091SOL     OW10692   5.522   7.316   4.006 -0.5383  0.1294  0.1334
 3091SOL    HW110693   5.600   7.362   3.975  0.3401 -2.4672 -1.8263
 3091SOL    HW210694   5.541   7.295   4.097 -0.5752  2.6553  0.8010
 3092SOL     OW10695   7.555   0.180   0.104  0.0000  0.5150  0.2325
 3092SOL    HW110696   7.646   0.205   0.086  0.5026 -0.8838  0.6322
 3092SOL    HW210697   7.554   0.163   0.199  0.0320 -1.9494 -0.1283
 3093SOL     OW10698   0.386   4.226   2.660  0.2067  0.4349 -0.7536
 3093SOL    HW110699   0.376   4.311   2.702 -1.5174 -0.5049  0.8702
 3093SOL    HW210700   0.451   4.180   2.713 -1.4381 -0.4877  0.5501
 3094SOL     OW10701   1.749   5.341   3.094 -0.0308 -0.4099  0.1659
 3094SOL    HW110702   1.665   5.338   3.048  1.2117  0.4683 -2.3553
 3094SOL    HW210703   1.806   5.286   3.041  1.8745  1.8893 -0.3259
 3095SOL     OW10704   0.894   0.528   2.602  1.1325 -0.2169  0.2133
 3095SOL    HW110705   0.829   0.475   2.649  0.6585  0.4457  0.3223
 3095SOL    HW210706   0.893   0.493   2.513 -0.5213  0.7631 -0.2077
 3096SOL     OW10707   4.438   7.246   3.279  0.5564  0.2047  0.1570
 3096SOL    HW110708   4.452   7.296   3.360 -0.4758 -0.6929  0.9151
 3096SOL    HW210709   4.343   7.229   3.278  0.5282  0.3539 -1.3417
 3097SOL     OW10710   7.945   2.851   0.322 -0.5859  0.1737 -0.2230
 3097SOL    HW110711   7.985   2.928   0.362  0.6809 -0.1121 -0.9022
 3097SOL    HW210712   7.897   2.809   0.393 -2.0892  2.0603 -0.0345
 3098SOL     OW10713   4.355   7.255   7.145  0.4651 -0.0646  0.2266
 3098SOL    HW110714   4.328   7.168   7.115  0.5851  0.0505 -0.2119
 3098SOL    HW210715   4.446   7.263   7.116  0.1139  0.6549 -0.7337
 3099SOL     OW10716   6.975   5.614   7.189  0.1220  0.0606 -0.2970
 3099SOL    HW110717   7.004   5.558   7.117 -1.3415  0.8177 -1.5451
 3099SOL    HW210718   6.982   5.559   7.266  0.1296 -1.3672 -1.2729
 3100SOL     OW10719   1.859   4.072   5.781 -0.2640  0.4883  0.4624
 3100SOL    HW110720   1.805   4.140   5.740 -0.6544 -0.2998 -0.3429
 3100SOL    HW210721   1.938   4.069   5.728  0.4332  1.3738  1.4147
 3101SOL     OW10722   0.133   3.438   1.598  0.3177  0.5929 -0.0179
 3101SOL    HW110723   0.132   3.516   1.653 -0.2664  0.8198 -0.3371
 3101SOL    HW210724   0.078   3.461   1.523  0.5388  0.0468 -0.3567
 3102SOL     OW10725   6.417   5.448   2.890  0.0653 -0.1665  0.5833
 3102SOL    HW110726   6.382   5.514   2.831 -1.6820  0.3140  2.0811
 3102SOL    HW210727   6.497   5.488   2.926 -1.0734  1.2645  1.6261
 3103SOL     OW10728   2.334   2.416   0.469  0.2768 -0.3263  0.2190
 3103SOL    HW110729   2.352   2.351   0.537  0.5071  0.3141  0.7756
 3103SOL    HW210730   2.419   2.436   0.432  0.4338  0.8897  1.1894
 3104SOL     OW10731   6.591   4.940   0.676  0.2416  0.3064 -0.2633
 3104SOL    HW110732   6.659   4.946   0.609  0.6751 -1.4658 -0.0390
 3104SOL    HW210733   6.617   4.865   0.730 -1.5198  0.0083  0.2448
 3105SOL     OW10734   7.789   3.087   5.927 -0.2980 -0.0308 -0.4193
 3105SOL    HW110735   7.832   3.075   6.011 -1.8025  1.1155  0.5916
 3105SOL    HW210736   7.823   3.017   5.871  1.8469  0.0738  0.6607
 3106SOL     OW10737   7.084   0.950   0.111  0.5128  0.2244  0.3948
 3106SOL    HW110738   7.121   1.026   0.065  0.9055 -0.3399 -0.2422
 3106SOL    HW210739   7.013   0.920   0.054  0.4849 -0.0038  0.5500
 3107SOL     OW10740   7.873   4.393   7.337  0.4882 -0.2936  0.0445
 3107SOL    HW110741   7.858   4.383   7.243  0.6564  0.2944 -0.0465
 3107SOL    HW210742   7.955   4.345   7.353 -0.4441 -1.8794  0.2117
 3108SOL     OW10743   3.830   7.513   3.534  0.0618  0.1084  0.2195
 3108SOL    HW110744   3.834   7.582   3.600 -1.0734 -0.3729  0.8160
 3108SOL    HW210745   3.920   7.480   3.530  0.4991  1.2280  0.3320
 3109SOL     OW10746   2.267   4.091   2.789  0.1801  0.2546  0.0595
 3109SOL    HW110747   2.199   4.041   2.835 -1.0393 -0.1908 -2.0751
 3109SOL    HW210748   2.260   4.179   2.825 -1.0376  0.0320  0.4262
 3110SOL     OW10749   2.360   5.829   4.375  0.1916 -0.4196 -0.0282
 3110SOL    HW110750   2.274   5.851   4.339 -0.5800 -2.5711  0.3979
 3110SOL    HW210751   2.366   5.881   4.455  0.1162  1.1436 -0.9835
 3111SOL     OW10752   6.305   6.296   2.156 -0.2621 -0.1662  0.0775
 3111SOL    HW110753   6.217   6.262   2.165  0.1755 -1.2187  0.5382
 3111SOL    HW210754   6.344   6.245   2.085 -0.4162  1.1892 -1.0414
 3112SOL     OW10755   4.400   1.990   0.421 -0.1778  0.0977  0.0186
 3112SOL    HW110756   4.382   1.896   0.430  1.2948 -0.0971  1.4061
 3112SOL    HW210757   4.488   1.994   0.384 -0.1049  0.9414  0.2592
 3113SOL     OW10758   2.988   6.880   7.055 -0.3718  1.1814  0.2782
 3113SOL    HW110759   3.047   6.951   7.030  0.0656  0.5938 -0.4007
 3113SOL    HW210760   3.041   6.801   7.049 -0.7746  0.8198  1.2985
 3114SOL     OW10761   4.091   6.367   0.199  0.5662 -0.1833  0.0013
 3114SOL    HW110762   4.168   6.379   0.144  1.0572  2.2517  1.1447
 3114SOL    HW210763   4.043   6.449   0.192  0.0223 -0.2452  2.2638
 3115SOL     OW10764   3.533   3.645   2.449  0.0835 -0.0440 -0.3291
 3115SOL    HW110765   3.587   3.723   2.435  1.4449 -0.7103  0.9936
 3115SOL    HW210766   3.487   3.661   2.531 -0.6837 -0.0685 -0.7465
 3116SOL     OW10767   1.304   5.823   5.741  0.1204 -0.6483 -0.1297
 3116SOL    HW110768   1.287   5.755   5.807 -1.3544  0.3461  0.5813
 3116SOL    HW210769   1.339   5.896   5.791  4.6330 -1.7234 -1.2414
 3117SOL     OW10770   2.862   3.183   5.179 -0.8991 -0.4217  0.6062
 3117SOL    HW110771   2.823   3.218   5.099  1.1919  0.3780 -0.1438
 3117SOL    HW210772   2.817   3.229   5.250  0.3514  2.3959 -0.2885
 3118SOL     OW10773   0.331   6.042   7.627  0.3779  0.6496  0.5123
 3118SOL    HW110774   0.266   6.037   7.556 -1.7334 -0.7640  2.4246
 3118SOL    HW210775   0.355   6.135   7.630  0.6930  0.7457 -2.1171
 3119SOL     OW10776   1.866   3.048   3.339  0.4900 -0.1452 -0.1085
 3119SOL    HW110777   1.821   3.122   3.298 -0.2325 -0.0143  0.8836
 3119SOL    HW210778   1.934   3.023   3.276 -0.0012  0.6220 -0.9635
 3120SOL     OW10779   6.088   0.287   0.331 -0.1364 -0.2774  0.0502
 3120SOL    HW110780   6.027   0.260   0.263 -1.5930 -0.4785  1.3734
 3120SOL    HW210781   6.158   0.332   0.284 -0.3788 -1.6038 -1.6873
 3121SOL     OW10782   0.104   0.391   6.470 -0.5255  0.1707  0.3634
 3121SOL    HW110783   0.066   0.360   6.387 -1.5586 -1.0369  1.2582
 3121SOL    HW210784   0.134   0.312   6.514  1.1971  0.9160  0.6276
 3122SOL     OW10785   4.775   6.783   4.581 -0.1094  0.4607  0.4937
 3122SOL    HW110786   4.846   6.719   4.567  0.0782  0.5189  1.1466
 3122SOL    HW210787   4.718   6.772   4.505  1.3660  1.4388 -0.8291
 3123SOL     OW10788   2.177   5.403   1.127  0.0466 -0.4485 -0.6335
 3123SOL    HW110789   2.253   5.351   1.153 -0.0159  0.2741  1.0606
 3123SOL    HW210790   2.102   5.345   1.141  0.0464 -0.1908  0.5144
 3124SOL     OW10791   6.082   5.470   1.342  0.5837  0.5543 -0.0349
 3124SOL    HW110792   6.150   5.533   1.364 -0.2809  1.2840  0.6576
 3124SOL    HW210793   6.044   5.502   1.260 -0.9570  1.9502  1.1347
 3125SOL     OW10794   1.472   7.509   0.566  0.1315  0.3310 -0.3935
 3125SOL    HW110795   1.471   7.454   0.487  1.2666 -1.0976  0.5188
 3125SOL    HW210796   1.399   7.477   0.619 -1.3594  2.0696 -1.3154
 3126SOL     OW10797   1.011   7.934   3.725 -0.0048 -1.1392 -0.2857
 3126SOL    HW110798   1.041   7.987   3.651 -0.2592  1.6660  1.4667
 3126SOL    HW210799   1.082   7.872   3.740  0.2608 -1.4635 -2.5310
 3127SOL     OW10800   5.182   7.072   0.251  0.0911 -0.1158  0.4376
 3127SOL    HW110801   5.158   6.989   0.210  0.7546 -0.2786  0.3571
 3127SOL    HW210802   5.256   7.050   0.307  1.9092  0.8395 -1.4407
 3128SOL     OW10803   1.157   5.136   2.018  0.2093  0.1377  0.3434
 3128SOL    HW110804   1.167   5.231   2.010 -0.1551  0.1695  0.2613
 3128SOL    HW210805   1.125   5.108   1.932  2.5708 -0.3775 -0.4538
 3129SOL     OW10806   3.406   0.426   2.564  0.0958 -0.3064  0.4698
 3129SOL    HW110807   3.355   0.378   2.630 -1.7066 -0.9245 -1.2476
 3129SOL    HW210808   3.346   0.494   2.534  0.7020 -0.3028 -0.7932
 3130SOL     OW10809   0.335   6.263   0.625  0.3459 -0.1435 -0.1310
 3130SOL    HW110810   0.301   6.341   0.670 -0.8151 -1.3619  1.2279
 3130SOL    HW210811   0.428   6.261   0.647 -0.3406 -1.2724  3.3244
 3131SOL     OW10812   6.767   6.782   2.577 -0.2151  0.5984 -0.0527
 3131SOL    HW110813   6.691   6.733   2.547 -0.0950  0.6294 -0.4102
 3131SOL    HW210814   6.824   6.788   2.500 -0.9037  2.6094 -0.4544
 3132SOL     OW10815   7.083   0.547   6.626 -0.2224  0.0080  0.0473
 3132SOL    HW110816   7.105   0.454   6.623 -1.9343 -0.4323 -0.2132
 3132SOL    HW210817   7.019   0.554   6.697  1.8017  1.4817  1.8489
 3133SOL     OW10818   0.339   6.350   7.286  0.1647 -0.0100 -0.3221
 3133SOL    HW110819   0.288   6.348   7.367  0.0027  2.9968 -0.2581
 3133SOL    HW210820   0.316   6.268   7.241  0.0995 -1.6726  2.5057
 3134SOL     OW10821   8.018   7.363   1.047  0.5123 -0.3712 -0.5862
 3134SOL    HW110822   7.970   7.325   1.121  0.3563 -0.4943 -0.7474
 3134SOL    HW210823   8.031   7.454   1.071 -0.0624 -0.2615 -0.6625
 3135SOL     OW10824   7.998   0.080   2.858  0.8450 -0.1691  0.1011
 3135SOL    HW110825   8.038  -0.001   2.889  2.0845 -0.7393 -2.7261
 3135SOL    HW210826   7.926   0.051   2.802  0.5905  0.7286 -0.0451
 3136SOL     OW10827   7.101   2.687   4.570  0.4755 -0.1511  0.1592
 3136SOL    HW110828   7.065   2.624   4.632 -1.8922  1.6679  0.7867
 3136SOL    HW210829   7.095   2.771   4.615  0.6525  0.9372 -1.7526
 3137SOL     OW10830   5.395   6.449   0.676  0.1346  0.0358 -0.3151
 3137SOL    HW110831   5.428   6.522   0.623 -1.4847  1.0465  0.0238
 3137SOL    HW210832   5.438   6.371   0.640 -0.0084  0.8498 -2.3175
 3138SOL     OW10833   6.607   7.222   4.313  0.4336 -0.1713 -0.4428
 3138SOL    HW110834   6.594   7.128   4.305 -0.2860 -0.1590  0.4672
 3138SOL    HW210835   6.548   7.260   4.248  0.7112 -0.3385 -0.7985
 3139SOL     OW10836   7.896   4.900   1.180  0.0446  0.6913  1.1672
 3139SOL    HW110837   7.989   4.919   1.164  0.0115  0.2617  0.4040
 3139SOL    HW210838   7.860   4.981   1.216  0.8082  0.7304  1.8777
 3140SOL     OW10839   4.993   2.825   1.144  0.2734  0.2690 -0.9567
 3140SOL    HW110840   5.024   2.797   1.058 -1.0219  0.9978 -1.6939
 3140SOL    HW210841   4.899   2.839   1.132 -0.7416 -3.0291  1.4258
 3141SOL     OW10842   3.740   4.216   2.102 -0.0494 -0.3268 -0.1080
 3141SOL    HW110843   3.693   4.247   2.179  2.8255 -1.0007  2.1006
 3141SOL    HW210844   3.743   4.292   2.043 -0.4899  0.8944  1.3907
 3142SOL     OW10845   5.640   5.063   3.279 -0.1168 -0.3107  0.4653
 3142SOL    HW110846   5.642   5.136   3.216  1.5950 -0.3943  0.3667
 3142SOL    HW210847   5.549   5.035   3.281 -0.9795  2.3196  1.0888
 3143SOL     OW10848   7.774   8.050   1.498 -0.2363  0.6113 -0.7545
 3143SOL    HW110849   7.747   8.019   1.411 -0.1051 -0.0458 -0.5688
 3143SOL    HW210850   7.746   7.980   1.557  0.2150  0.7844 -0.3398
 3144SOL     OW10851   0.313   0.398   1.761  0.0612 -0.4351 -0.0343
 3144SOL    HW110852   0.300   0.334   1.831 -0.1310 -0.0705  0.2640
 3144SOL    HW210853   0.226   0.410   1.723  0.1467 -0.5553 -0.2706
 3145SOL     OW10854   4.773   0.119   6.999 -0.2245 -0.2302  0.3530
 3145SOL    HW110855   4.725   0.092   7.077  0.6400 -0.2666  0.8881
 3145SOL    HW210856   4.797   0.037   6.956  0.9721 -0.2932  1.0973
 3146SOL     OW10857   7.899   5.570   5.995 -0.1672 -0.1934 -0.1021
 3146SOL    HW110858   7.853   5.603   5.918 -1.1150 -0.5680  0.2886
 3146SOL    HW210859   7.980   5.621   5.999 -0.7272  0.7531 -0.5894
 3147SOL     OW10860   6.210   6.031   0.176 -0.1535  0.0495 -0.6768
 3147SOL    HW110861   6.210   6.048   0.270 -2.2790  2.9118 -1.0725
 3147SOL    HW210862   6.127   5.987   0.159 -0.3225  0.6142 -1.3569
 3148SOL     OW10863   3.432   2.636   1.280  0.1792  0.2009 -0.2141
 3148SOL    HW110864   3.442   2.545   1.250  1.4875 -0.0056  0.7463
 3148SOL    HW210865   3.360   2.632   1.343  1.9630 -0.7784  1.9138
 3149SOL     OW10866   1.804   3.435   5.535 -0.4472  0.1043  0.2528
 3149SOL    HW110867   1.765   3.502   5.591  2.9022  1.8261  0.7642
 3149SOL    HW210868   1.885   3.410   5.580  0.4142 -1.3649 -1.9333
 3150SOL     OW10869   3.420   4.870   2.740  0.3942 -0.2143 -0.6587
 3150SOL    HW110870   3.412   4.928   2.816  0.8088 -2.1840  0.9612
 3150SOL    HW210871   3.361   4.908   2.675 -1.0238  0.7737  1.1138
 3151SOL     OW10872   7.043   1.747   7.199  0.2140  0.0158 -0.0278
 3151SOL    HW110873   7.129   1.790   7.199 -0.1911  1.0033 -2.4719
 3151SOL    HW210874   7.056   1.668   7.252  2.8028 -0.1525 -0.7364
 3152SOL     OW10875   5.205   4.603   2.441 -0.3469 -0.1541  0.4164
 3152SOL    HW110876   5.254   4.623   2.361 -0.6469 -0.3423  0.1853
 3152SOL    HW210877   5.116   4.585   2.411 -0.5426  0.1126  0.8293
 3153SOL     OW10878   0.713   4.628   6.085 -0.0442 -0.1690  0.0236
 3153SOL    HW110879   0.801   4.665   6.095  0.5202 -1.3324 -0.3841
 3153SOL    HW210880   0.672   4.639   6.171  1.9409 -3.1573  1.5270
 3154SOL     OW10881   1.628   3.217   3.377  0.1037  0.3865  0.3260
 3154SOL    HW110882   1.589   3.217   3.290  1.4385  0.9469 -0.2893
 3154SOL    HW210883   1.567   3.165   3.430 -0.9017  0.3268 -0.8465
 3155SOL     OW10884   1.312   4.418   0.752 -0.1098 -0.4233  0.0059
 3155SOL    HW110885   1.383   4.401   0.690  0.1474  1.5281 -0.3142
 3155SOL    HW210886   1.237   4.371   0.716  0.2366  0.0583 -1.3998
 3156SOL     OW10887   8.045   6.939   3.072 -0.7644 -0.3601 -0.3454
 3156SOL    HW110888   8.063   6.881   3.147 -0.0470 -1.1766 -1.1208
 3156SOL    HW210889   7.966   6.903   3.033 -1.3518  0.2911  0.2225
 3157SOL     OW10890   4.281   3.895   5.116  0.3639  0.1529  0.0046
 3157SOL    HW110891   4.216   3.936   5.174  0.6505  1.8306 -0.8171
 3157SOL    HW210892   4.230   3.858   5.044  0.2345  0.5538 -0.1094
 3158SOL     OW10893   7.442   0.314   0.333 -0.6039  0.5747  0.3755
 3158SOL    HW110894   7.478   0.284   0.416 -1.6674  0.4012  0.7984
 3158SOL    HW210895   7.373   0.250   0.313  1.7596 -1.3829 -2.3722
 3159SOL     OW10896   2.494   3.306   3.421 -0.0769 -0.1882 -0.0210
 3159SOL    HW110897   2.415   3.358   3.435 -0.3382 -0.2534 -1.1264
 3159SOL    HW210898   2.514   3.269   3.507  0.2619  1.9046  0.8448
 3160SOL     OW10899   1.616   1.903   5.789  0.0860 -0.1031  0.5205
 3160SOL    HW110900   1.709   1.915   5.809 -0.2348  1.7432  1.0445
 3160SOL    HW210901   1.589   1.984   5.745 -1.2844 -0.5853  0.4045
 3161SOL     OW10902   4.440   4.470   6.937  0.3352 -0.4777  0.0404
 3161SOL    HW110903   4.461   4.446   6.847 -0.5166 -1.2049  0.0291
 3161SOL    HW210904   4.502   4.540   6.957  1.6482 -1.4225 -0.5443
 3162SOL     OW10905   2.564   4.060   7.048 -0.3364  0.4355  0.2325
 3162SOL    HW110906   2.482   4.012   7.049  1.1972 -2.4529 -1.1000
 3162SOL    HW210907   2.610   4.029   6.970  0.7950  4.2759 -0.8808
 3163SOL     OW10908   4.979   6.701   6.296  0.1796  0.3006 -0.6236
 3163SOL    HW110909   5.012   6.730   6.211 -3.6217  1.9900 -1.7411
 3163SOL    HW210910   4.888   6.680   6.280  0.0675 -2.2925  2.5136
 3164SOL     OW10911   2.395   6.602   4.092 -0.1554  0.3508 -0.3895
 3164SOL    HW110912   2.305   6.584   4.120 -0.9632  2.7755 -1.1449
 3164SOL    HW210913   2.408   6.548   4.015 -0.5707 -0.8108  0.3366
 3165SOL     OW10914   7.873   1.533   5.009 -0.0842 -0.5781  0.4358
 3165SOL    HW110915   7.784   1.548   5.041 -0.1136  1.1617 -0.3825
 3165SOL    HW210916   7.879   1.438   4.999 -2.1404 -0.6723 -0.3331
 3166SOL     OW10917   2.960   4.965   2.235  0.6233  0.4651  0.2104
 3166SOL    HW110918   2.987   4.879   2.265  1.9157  0.7529 -0.0491
 3166SOL    HW210919   2.913   4.949   2.154  0.5592 -0.0240  0.3456
 3167SOL     OW10920   1.047   6.522   1.636 -0.0150  0.5141 -0.4022
 3167SOL    HW110921   1.003   6.448   1.677  0.9142 -0.2456 -0.7236
 3167SOL    HW210922   1.051   6.589   1.704 -1.0716  0.3586 -0.1763
 3168SOL     OW10923   5.253   0.428   1.501 -0.3238 -0.4994 -0.2581
 3168SOL    HW110924   5.293   0.511   1.476 -0.3126 -0.6396 -0.7011
 3168SOL    HW210925   5.199   0.451   1.577 -0.3968 -0.0638 -0.4323
 3169SOL     OW10926   3.000   3.055   3.351  0.2119  0.2693 -0.4257
 3169SOL    HW110927   2.945   2.979   3.334 -1.4088  1.5538 -1.1289
 3169SOL    HW210928   3.071   3.047   3.287 -0.6224  0.0013 -1.3342
 3170SOL     OW10929   1.768   4.628   5.564  0.1405 -0.7577  0.0838
 3170SOL    HW110930   1.762   4.564   5.494 -1.0757 -0.6414  0.0665
 3170SOL    HW210931   1.849   4.676   5.546  0.1283 -1.1024 -0.9169
 3171SOL     OW10932   7.017   5.930   3.121  0.1795  0.4608 -0.3923
 3171SOL    HW110933   7.111   5.919   3.132  0.1414 -0.5227 -0.9407
 3171SOL    HW210934   6.985   5.955   3.208  0.7889 -0.3166  0.0621
 3172SOL     OW10935   2.371   6.130   3.438 -0.1881  0.3531  0.3346
 3172SOL    HW110936   2.306   6.134   3.507 -0.6608 -0.8860 -0.0100
 3172SOL    HW210937   2.336   6.186   3.369 -0.8953 -0.2891  0.1599
 3173SOL     OW10938   3.728   4.281   0.002 -0.0958  0.6911  0.2014
 3173SOL    HW110939   3.657   4.278  -0.063 -1.7138  0.6050  1.8724
 3173SOL    HW210940   3.784   4.352  -0.027  0.1671 -0.3662 -2.1447
 3174SOL     OW10941   2.884   4.429   1.946  0.3245  0.5929 -0.0868
 3174SOL    HW110942   2.859   4.515   1.980  0.2399  0.1937  0.8944
 3174SOL    HW210943   2.824   4.413   1.874 -0.6524  0.7056  0.6838
 3175SOL     OW10944   6.320   6.677   3.059  0.2816 -0.3003  0.5781
 3175SOL    HW110945   6.404   6.645   3.027  1.4160  1.7415  1.2606
 3175SOL    HW210946   6.267   6.688   2.981 -0.0047 -3.1500  0.2697
 3176SOL     OW10947   0.072   0.347   5.679 -0.0003 -0.4546 -0.3872
 3176SOL    HW110948   0.109   0.262   5.704 -1.9180 -0.6754  2.1915
 3176SOL    HW210949   0.111   0.409   5.741 -1.5314 -0.1944  0.3778
 3177SOL     OW10950   4.704   3.830   6.556  0.1690  0.8723  0.0955
 3177SOL    HW110951   4.651   3.752   6.537  2.0174 -0.8013  1.3732
 3177SOL    HW210952   4.641   3.894   6.590 -1.1924 -0.7028  0.6928
 3178SOL     OW10953   1.326   4.376   5.991  0.1190  1.0238 -0.3644
 3178SOL    HW110954   1.250   4.360   5.935 -0.2034 -0.4427  0.4625
 3178SOL    HW210955   1.389   4.309   5.966  0.0378  0.4560  0.8923
 3179SOL     OW10956   0.602   3.720   5.483  0.8320  0.4776 -0.0534
 3179SOL    HW110957   0.655   3.729   5.563  0.8164  2.4324 -0.1992
 3179SOL    HW210958   0.577   3.810   5.462  2.0245  0.1997 -3.0876
 3180SOL     OW10959   7.096   5.573   0.081  0.1257  0.5845  0.2056
 3180SOL    HW110960   7.156   5.522   0.135 -2.0473 -0.3882  1.8380
 3180SOL    HW210961   7.154   5.628   0.027  2.4814 -1.3392  0.5790
 3181SOL     OW10962   2.643   4.667   4.195  0.5700  0.1812  0.2407
 3181SOL    HW110963   2.670   4.590   4.144 -1.0403 -0.0672 -0.3109
 3181SOL    HW210964   2.571   4.705   4.144  1.3210  2.0619  0.5202
 3182SOL     OW10965   1.342   7.003   5.492 -0.6770  0.4126  0.4193
 3182SOL    HW110966   1.319   6.950   5.416  0.7592  0.5005 -0.1080
 3182SOL    HW210967   1.321   7.093   5.465  0.2110  0.4915 -0.0544
 3183SOL     OW10968   6.980   4.267   2.557 -0.2092 -0.5680 -0.0790
 3183SOL    HW110969   6.974   4.204   2.628  2.6609  0.6273  1.3692
 3183SOL    HW210970   6.994   4.214   2.479 -1.3676 -1.8128  0.5135
 3184SOL     OW10971   1.566   6.586   3.927 -0.4224 -0.4014  0.5065
 3184SOL    HW110972   1.531   6.524   3.863 -2.7200  0.6032  0.7000
 3184SOL    HW210973   1.515   6.666   3.914 -1.0724 -0.1627  3.6101
 3185SOL     OW10974   8.050   2.541   3.228 -0.0095  0.3394 -0.1968
 3185SOL    HW110975   7.975   2.526   3.286 -0.0522  1.7411  0.1306
 3185SOL    HW210976   8.125   2.503   3.275 -0.3967 -0.5159 -0.2505
 3186SOL     OW10977   0.498   2.577   1.052  0.0147  0.2781  0.0337
 3186SOL    HW110978   0.527   2.493   1.015 -1.1631  0.0347 -0.3976
 3186SOL    HW210979   0.531   2.643   0.991  0.6713  0.1077  0.1993
 3187SOL     OW10980   3.699   5.370   0.566  0.0699 -0.5165 -0.0394
 3187SOL    HW110981   3.606   5.393   0.564  0.4743  1.2545  0.4395
 3187SOL    HW210982   3.706   5.304   0.635 -0.5024  0.9894  1.5184
 3188SOL     OW10983   7.073   3.450   2.273  0.2027 -0.0275  0.2545
 3188SOL    HW110984   7.124   3.369   2.276  1.4355  0.7243  0.1384
 3188SOL    HW210985   6.983   3.423   2.293  0.6306 -1.3874  0.4026
 3189SOL     OW10986   6.336   1.490   1.779 -0.3294 -0.1253 -0.4522
 3189SOL    HW110987   6.354   1.421   1.714 -0.1649  1.4931 -2.2018
 3189SOL    HW210988   6.245   1.515   1.763 -0.4767 -0.1235  0.3639
 3190SOL     OW10989   4.127   4.286   1.965  0.2953  0.3603  0.1792
 3190SOL    HW110990   4.144   4.330   2.048  0.1947  1.1849 -0.2207
 3190SOL    HW210991   4.150   4.195   1.981 -1.4760  0.1189  1.6592
 3191SOL     OW10992   1.314   4.626   7.783 -0.2032 -0.5712  0.2981
 3191SOL    HW110993   1.254   4.553   7.768  1.9425 -2.0013 -1.8844
 3191SOL    HW210994   1.297   4.687   7.711 -0.4345  0.0547  0.8634
 3192SOL     OW10995   6.741   0.002   6.575 -0.1058  0.5928 -0.4349
 3192SOL    HW110996   6.654   0.003   6.535 -0.2286  0.7825 -0.1670
 3192SOL    HW210997   6.726   0.032   6.665  0.1233 -0.0825 -0.1620
 3193SOL     OW10998   0.494   3.507   6.425  0.1161 -0.7920  0.3163
 3193SOL    HW110999   0.480   3.547   6.511 -0.9357 -1.1602  0.3279
 3193SOL    HW211000   0.556   3.565   6.382 -1.3862  0.9036  0.3234
 3194SOL     OW11001   5.282   4.646   3.955  0.1530  0.0614  0.0199
 3194SOL    HW111002   5.223   4.722   3.961  0.8176  0.4917  1.6017
 3194SOL    HW211003   5.325   4.656   3.870 -1.9293 -0.2045 -1.1319
 3195SOL     OW11004   3.489   2.907   1.168  0.0982 -0.2165  0.3362
 3195SOL    HW111005   3.458   2.816   1.171  0.1410 -0.2378  0.1447
 3195SOL    HW211006   3.499   2.932   1.260  0.7844 -0.6425  0.3852
 3196SOL     OW11007   3.368   2.977   0.875 -0.0937 -0.0023  0.0216
 3196SOL    HW111008   3.391   2.904   0.817 -0.8323 -2.1218  2.1844
 3196SOL    HW211009   3.310   3.032   0.823 -0.6780 -1.7679 -1.2857
 3197SOL     OW11010   1.513   3.217   4.184 -0.5138  0.2493  0.4133
 3197SOL    HW111011   1.500   3.286   4.119  1.0387 -0.1309 -0.3510
 3197SOL    HW211012   1.429   3.172   4.188 -0.9932  1.0347 -0.4499
 3198SOL     OW11013   6.973   3.936   4.067  0.9007 -0.2751 -0.0050
 3198SOL    HW111014   6.958   3.862   4.127  1.0881  0.1203  0.5316
 3198SOL    HW211015   7.048   3.909   4.014 -0.7715 -1.6936 -1.7803
 3199SOL     OW11016   7.786   2.763   2.619 -0.4594 -0.4164  0.4149
 3199SOL    HW111017   7.876   2.796   2.614 -1.2236  2.0317  1.1963
 3199SOL    HW211018   7.764   2.769   2.712 -1.6519 -0.3422  0.1375
 3200SOL     OW11019   2.618   2.847   5.819 -0.0656  0.4725  0.6132
 3200SOL    HW111020   2.578   2.813   5.899 -0.7997  0.5167  0.2778
 3200SOL    HW211021   2.569   2.804   5.748  2.6416 -2.1410  0.0941
 3201SOL     OW11022   0.759   3.318   0.738  0.4118  0.2066  0.3280
 3201SOL    HW111023   0.689   3.274   0.785 -0.5121 -0.1168 -1.2852
 3201SOL    HW211024   0.814   3.247   0.704  0.7298  0.4148  0.3990
 3202SOL     OW11025   3.407   3.306   0.469 -0.2867 -0.4345  0.0174
 3202SOL    HW111026   3.334   3.355   0.431  0.3885  0.0001 -0.7600
 3202SOL    HW211027   3.402   3.325   0.563 -0.9690 -0.1307 -0.0748
 3203SOL     OW11028   2.278   6.912   2.684 -0.1330  0.2888 -0.5028
 3203SOL    HW111029   2.267   6.911   2.589 -0.8998 -0.6777 -0.4198
 3203SOL    HW211030   2.371   6.933   2.697  0.6452 -2.0598 -1.5635
 3204SOL     OW11031   7.985   1.775   2.780  0.4320 -0.1865 -0.3276
 3204SOL    HW111032   7.935   1.695   2.791  0.1296 -0.0569 -0.7630
 3204SOL    HW211033   8.031   1.765   2.697  0.9459 -0.2004 -0.0525
 3205SOL     OW11034   1.496   3.837   8.050  0.3183  0.5315 -0.3938
 3205SOL    HW111035   1.467   3.759   8.098 -1.9081  1.4078 -0.2194
 3205SOL    HW211036   1.518   3.804   7.963 -0.5709 -0.2962 -0.3162
 3206SOL     OW11037   5.952   0.790   7.268 -0.7297 -0.5658 -0.4646
 3206SOL    HW111038   5.860   0.798   7.293 -0.1042 -0.6154  2.1129
 3206SOL    HW211039   5.999   0.842   7.333  1.2099 -1.9986 -0.6292
 3207SOL     OW11040   4.861   2.574   0.105  0.6403  0.3624 -0.1330
 3207SOL    HW111041   4.864   2.665   0.135  0.6488  0.0570  0.8415
 3207SOL    HW211042   4.859   2.580   0.010 -0.3756  1.4121 -0.0695
 3208SOL     OW11043   2.016   0.742   5.670 -0.4359  0.0244  0.3819
 3208SOL    HW111044   2.053   0.785   5.593  1.1003 -0.5701  0.7445
 3208SOL    HW211045   2.089   0.740   5.733 -1.4052 -0.2712  1.5356
 3209SOL     OW11046   0.605   3.653   0.189  0.3861  0.1818  0.1442
 3209SOL    HW111047   0.626   3.725   0.129  1.1835 -0.3970 -0.2922
 3209SOL    HW211048   0.640   3.681   0.273 -2.1085  1.7008  0.7819
 3210SOL     OW11049   0.903   3.123   6.821  0.0815 -0.0088  0.0514
 3210SOL    HW111050   0.811   3.131   6.799 -0.2004  0.5579  1.3220
 3210SOL    HW211051   0.905   3.066   6.898  0.9923 -1.6733 -1.1391
 3211SOL     OW11052   5.523   3.601   5.861 -0.2006  0.1402 -0.1489
 3211SOL    HW111053   5.525   3.693   5.833 -1.7537  0.2974  0.1351
 3211SOL    HW211054   5.509   3.606   5.956 -3.2350 -0.3131 -0.4692
 3212SOL     OW11055   1.973   2.970   3.823 -0.0874  0.4707  0.5499
 3212SOL    HW111056   1.918   3.046   3.804  1.1997  1.8800  2.0717
 3212SOL    HW211057   2.044   2.976   3.759  0.5013  1.1241  1.2414
 3213SOL     OW11058   6.099   6.153   7.719 -0.0929 -0.1004  0.5446
 3213SOL    HW111059   6.169   6.147   7.784  0.9801  2.6346 -0.2142
 3213SOL    HW211060   6.113   6.077   7.662  0.9162 -0.7828  1.6489
 3214SOL     OW11061   4.129   4.393   3.408  0.3735 -0.1025  0.2178
 3214SOL    HW111062   4.208   4.422   3.362 -0.1601 -1.1050 -1.4048
 3214SOL    HW211063   4.072   4.360   3.339 -0.4967 -1.6391  1.6045
 3215SOL     OW11064   7.746   3.364   0.420 -0.1647 -0.0330  0.0464
 3215SOL    HW111065   7.661   3.362   0.464  0.5932  2.0649  1.8082
 3215SOL    HW211066   7.763   3.273   0.396 -1.4362 -1.0429  2.6069
 3216SOL     OW11067   6.708   0.859   0.363 -0.2936 -0.9652  0.6211
 3216SOL    HW111068   6.802   0.875   0.364 -0.5229  1.3518 -2.0486
 3216SOL    HW211069   6.698   0.786   0.301 -0.3538  0.9680 -1.7927
 3217SOL     OW11070   3.510   5.251   2.186  0.2919  0.2596 -0.2681
 3217SOL    HW111071   3.478   5.162   2.171 -0.5838  0.8379 -2.1316
 3217SOL    HW211072   3.596   5.239   2.227 -0.0797 -1.4068  0.1078
 3218SOL     OW11073   4.486   6.652   0.888 -0.1077 -0.0928  0.6729
 3218SOL    HW111074   4.421   6.682   0.952 -0.7196 -0.1037  0.0605
 3218SOL    HW211075   4.439   6.591   0.832  0.5944 -0.5866  0.6051
 3219SOL     OW11076   6.731   2.581   2.746 -0.1140 -0.1374 -0.1023
 3219SOL    HW111077   6.715   2.663   2.699 -0.0531  0.8000  1.4523
 3219SOL    HW211078   6.791   2.604   2.817  1.3256 -1.8993 -0.6732
 3220SOL     OW11079   7.415   3.002   3.102  0.4362  0.2568  0.4081
 3220SOL    HW111080   7.331   3.033   3.068  1.0520  0.7899 -0.7031
 3220SOL    HW211081   7.440   2.932   3.043  1.1452  0.6441  0.2346
 3221SOL     OW11082   6.176   2.278   0.076  0.5157 -0.5287  0.7184
 3221SOL    HW111083   6.215   2.352   0.031  1.2170 -0.7022  1.0232
 3221SOL    HW211084   6.200   2.202   0.023 -1.9593 -0.3915 -0.7798
 3222SOL     OW11085   2.575   5.904   3.367 -0.3810 -0.1033  0.1592
 3222SOL    HW111086   2.490   5.937   3.396 -1.7290 -2.8530 -0.3357
 3222SOL    HW211087   2.614   5.864   3.446 -1.3606 -2.2572 -0.3720
 3223SOL     OW11088   1.701   2.975   2.914  0.0169 -0.4747  0.1785
 3223SOL    HW111089   1.708   2.896   2.968  0.7264  0.0534  0.8927
 3223SOL    HW211090   1.666   2.944   2.830  0.2300 -1.5278  0.4614
 3224SOL     OW11091   0.030   2.134   0.453  0.0507  0.2091  0.9329
 3224SOL    HW111092  -0.057   2.096   0.464 -0.4338  0.9297 -0.1840
 3224SOL    HW211093   0.058   2.156   0.541 -0.7343 -0.3936  1.3450
 3225SOL     OW11094   1.170   7.072   5.906 -0.2802  0.1229 -0.6444
 3225SOL    HW111095   1.171   7.018   5.827  0.6311  0.4166 -0.8500
 3225SOL    HW211096   1.128   7.154   5.879 -0.9297 -0.1712 -0.5414
 3226SOL     OW11097   6.706   1.003   4.022 -0.4955  0.1348 -0.2705
 3226SOL    HW111098   6.655   1.076   4.057 -1.2700  0.0742 -1.2246
 3226SOL    HW211099   6.642   0.935   4.002  0.1026 -0.4356 -0.3111
 3227SOL     OW11100   2.185   3.030   6.490  0.4463  0.8153 -0.0467
 3227SOL    HW111101   2.103   2.987   6.468  0.9126  1.2132 -2.9805
 3227SOL    HW211102   2.180   3.116   6.448  1.6592  1.5819  1.2694
 3228SOL     OW11103   5.717   4.847   2.313  0.3082 -0.1549 -0.3312
 3228SOL    HW111104   5.775   4.861   2.237 -0.8486 -0.5259 -1.3051
 3228SOL    HW211105   5.759   4.776   2.362  0.8895 -0.1525 -0.8115
 3229SOL     OW11106   5.128   1.611   6.734  0.3138  0.2433  0.1534
 3229SOL    HW111107   5.151   1.696   6.697 -0.7352 -0.1820 -1.6124
 3229SOL    HW211108   5.208   1.579   6.775  0.7814  1.9518  0.6287
 3230SOL     OW11109   1.579   3.846   4.197  0.0421  0.5406 -0.0662
 3230SOL    HW111110   1.607   3.916   4.256 -0.5739  0.9645 -0.2659
 3230SOL    HW211111   1.642   3.848   4.125  1.2722 -0.4930  0.9320
 3231SOL     OW11112   4.049   2.164   1.536  0.2325 -1.0745  0.1563
 3231SOL    HW111113   4.095   2.090   1.575 -0.9539 -1.5731  0.6498
 3231SOL    HW211114   4.088   2.241   1.578  1.0153 -1.4370  0.1228
 3232SOL     OW11115   1.084   4.103   1.384  0.3054 -0.6197 -0.3032
 3232SOL    HW111116   1.169   4.073   1.415  0.3634  1.3837  1.7678
 3232SOL    HW211117   1.046   4.149   1.459 -2.1098 -0.4458 -1.5288
 3233SOL     OW11118   1.881   3.577   2.757 -0.0504  0.0870 -0.7000
 3233SOL    HW111119   1.936   3.631   2.699  1.9933 -0.6637  0.4241
 3233SOL    HW211120   1.874   3.629   2.838 -0.3494 -0.1737 -0.5569
 3234SOL     OW11121   5.386   5.080   4.174  0.1102  0.2835 -0.3516
 3234SOL    HW111122   5.370   5.081   4.268 -0.8367 -0.4456 -0.4851
 3234SOL    HW211123   5.382   4.987   4.150 -2.3251  0.6041 -1.5035
 3235SOL     OW11124   5.732   2.471   7.366  0.2073 -0.0113 -0.6609
 3235SOL    HW111125   5.789   2.395   7.377 -0.2906 -0.2718  0.1876
 3235SOL    HW211126   5.734   2.515   7.451 -1.8414 -0.7371 -0.1855
 3236SOL     OW11127   1.585   6.710   3.598  0.2739 -0.0957  0.8283
 3236SOL    HW111128   1.643   6.768   3.646  1.5396 -1.3208  0.8499
 3236SOL    HW211129   1.506   6.705   3.652 -0.5856  2.8229  0.0419
 3237SOL     OW11130   6.609   3.319   7.924  0.0220  0.0947 -0.2032
 3237SOL    HW111131   6.672   3.307   7.995  0.9955  1.7822 -0.7390
 3237SOL    HW211132   6.577   3.408   7.935 -0.2664  0.1733 -1.5309
 3238SOL     OW11133   5.143   4.726   3.515 -0.0144 -0.0259  0.2271
 3238SOL    HW111134   5.057   4.716   3.474 -0.4478 -1.0480  1.3262
 3238SOL    HW211135   5.204   4.683   3.456 -0.2543  0.6909 -0.5525
 3239SOL     OW11136   4.382   2.810   0.520 -0.0274 -0.0062 -0.0500
 3239SOL    HW111137   4.398   2.762   0.439  0.5166 -0.5772  0.3873
 3239SOL    HW211138   4.359   2.742   0.583 -1.6297  0.5412 -0.0039
 3240SOL     OW11139   6.910   7.628   6.792  0.1633 -0.5032  0.0926
 3240SOL    HW111140   6.823   7.587   6.793 -0.1352  0.1175  1.1335
 3240SOL    HW211141   6.915   7.672   6.707 -1.0265  0.4287  0.4681
 3241SOL     OW11142   0.992   1.715   1.565  0.2386  0.0431 -0.5124
 3241SOL    HW111143   0.925   1.647   1.577  0.8843 -0.3367  1.1147
 3241SOL    HW211144   0.945   1.797   1.581 -0.2040 -0.0969 -1.0311
 3242SOL     OW11145   2.308   2.081   1.340 -0.2644 -0.2346  0.1364
 3242SOL    HW111146   2.326   2.173   1.359 -0.0877 -0.4539  1.1199
 3242SOL    HW211147   2.215   2.079   1.318 -1.2725 -0.2644  3.7144
 3243SOL     OW11148   8.015   2.090   1.874  0.1085 -0.3504 -0.3137
 3243SOL    HW111149   8.072   2.018   1.846 -0.5827 -1.3368  0.7233
 3243SOL    HW211150   8.019   2.153   1.802 -0.6428 -2.2282 -2.1222
 3244SOL     OW11151   5.061   3.474   4.990 -0.2199 -0.7970  0.1818
 3244SOL    HW111152   5.026   3.561   5.011 -0.5522 -1.0976  0.9169
 3244SOL    HW211153   5.047   3.465   4.896 -4.3876 -1.8367  0.6976
 3245SOL     OW11154   6.266   2.388   5.616  0.7909 -0.1398 -0.2789
 3245SOL    HW111155   6.182   2.359   5.580 -0.2664  0.9131  1.2367
 3245SOL    HW211156   6.291   2.462   5.560  1.1255 -0.9156 -1.1955
 3246SOL     OW11157   2.297   7.743   4.868  0.1934 -0.1740 -0.3977
 3246SOL    HW111158   2.345   7.676   4.819  1.0229  1.6706 -2.2398
 3246SOL    HW211159   2.207   7.711   4.871  0.8542 -2.1304  0.2452
 3247SOL     OW11160   7.241   5.330   5.925 -0.0055  0.5315 -0.0145
 3247SOL    HW111161   7.239   5.425   5.934  1.8721  0.6690 -0.5508
 3247SOL    HW211162   7.154   5.306   5.893 -0.5447  2.0427  0.2556
 3248SOL     OW11163   4.027   4.700   2.133  0.5819  0.6160  0.1317
 3248SOL    HW111164   3.968   4.724   2.204 -0.5200 -0.2509 -0.4637
 3248SOL    HW211165   4.014   4.768   2.066  1.1776  1.1019  0.5021
 3249SOL     OW11166   1.602   5.356   3.985  0.0476  0.0840  0.6534
 3249SOL    HW111167   1.649   5.343   3.903  0.9467  0.0859  1.1594
 3249SOL    HW211168   1.532   5.417   3.963 -0.0109 -0.2822 -0.2169
 3250SOL     OW11169   5.182   2.024   6.809  0.7367 -0.4871 -0.0317
 3250SOL    HW111170   5.102   2.019   6.756  1.0389 -1.7928 -0.4099
 3250SOL    HW211171   5.223   2.106   6.783 -0.3736  0.1034  0.0176
 3251SOL     OW11172   1.365   2.748   5.543  0.2907 -0.0139  0.2429
 3251SOL    HW111173   1.400   2.715   5.625 -0.4904 -0.2957  0.4744
 3251SOL    HW211174   1.303   2.681   5.514  0.0661  0.3877 -0.2368
 3252SOL     OW11175   0.879   2.853   7.437 -0.0685  0.0304  0.1559
 3252SOL    HW111176   0.813   2.864   7.506 -0.4389  0.7623 -0.3088
 3252SOL    HW211177   0.874   2.760   7.415 -1.5125  0.2194 -0.4221
 3253SOL     OW11178   1.176   2.502   4.943 -0.3018 -0.0268 -0.4773
 3253SOL    HW111179   1.147   2.591   4.920  1.8163  0.6855 -0.6227
 3253SOL    HW211180   1.180   2.502   5.039 -0.6793 -0.0940 -0.4616
 3254SOL     OW11181   3.435   3.521   5.575  0.2783 -0.2514 -0.4807
 3254SOL    HW111182   3.527   3.505   5.593 -0.1374 -0.3209  1.8629
 3254SOL    HW211183   3.420   3.611   5.604 -0.3979 -0.2301 -0.8617
 3255SOL     OW11184   4.452   1.181   1.685  0.6546  0.2777 -0.2429
 3255SOL    HW111185   4.543   1.173   1.657  0.9136  0.9015  0.3948
 3255SOL    HW211186   4.419   1.256   1.635  0.7979  0.6902  0.2606
 3256SOL     OW11187   2.742   2.517   2.675  0.0376  0.2799 -0.2951
 3256SOL    HW111188   2.741   2.590   2.612 -1.6481 -0.0542 -0.7040
 3256SOL    HW211189   2.771   2.556   2.757  0.9182  1.0178 -0.9377
 3257SOL     OW11190   6.445   1.084   1.698 -0.1155 -0.5868  0.3359
 3257SOL    HW111191   6.418   1.002   1.656 -0.0284 -0.5480  0.2011
 3257SOL    HW211192   6.405   1.081   1.785  1.2995 -1.5549  0.9884
 3258SOL     OW11193   4.806   1.279   5.406  0.3378  0.0432 -0.7094
 3258SOL    HW111194   4.837   1.215   5.471  1.0973 -1.9746 -2.9063
 3258SOL    HW211195   4.766   1.348   5.458  1.0836 -1.3491  1.9089
 3259SOL     OW11196   6.187   4.795   5.378 -1.1030  0.2377 -0.2189
 3259SOL    HW111197   6.143   4.727   5.326  0.0404 -0.6569 -0.0415
 3259SOL    HW211198   6.155   4.780   5.467  0.4775 -1.2428  0.1464
 3260SOL     OW11199   5.181   3.214   0.228 -0.3293 -0.2997  0.4126
 3260SOL    HW111200   5.231   3.201   0.309 -0.3903 -2.1157  0.1994
 3260SOL    HW211201   5.248   3.218   0.159 -0.3600 -3.1898  0.0693
 3261SOL     OW11202   7.406   2.512   4.272  0.0080 -0.0400  0.8780
 3261SOL    HW111203   7.463   2.436   4.283  1.1751  0.7239  0.3029
 3261SOL    HW211204   7.449   2.582   4.321 -0.3515  0.6025  0.2927
 3262SOL     OW11205   4.055   1.308   2.014 -0.3249 -0.3368  0.0192
 3262SOL    HW111206   4.105   1.280   1.937 -0.0606  2.3787 -0.8799
 3262SOL    HW211207   3.968   1.330   1.979 -0.1572  1.0558  0.4342
 3263SOL     OW11208   0.087   0.064   3.629  0.0742  0.0949 -0.4309
 3263SOL    HW111209   0.120   0.075   3.718  1.0352 -1.3515 -0.5771
 3263SOL    HW211210   0.158   0.095   3.573 -0.4952  0.9233 -0.7165
 3264SOL     OW11211   1.506   6.385   4.840 -0.8695  0.2956 -0.3503
 3264SOL    HW111212   1.572   6.337   4.790 -2.0038 -2.2066  0.3573
 3264SOL    HW211213   1.552   6.462   4.873  0.8480  0.1913 -2.2644
 3265SOL     OW11214   3.237   5.006   0.161  0.1895 -0.2892 -0.1039
 3265SOL    HW111215   3.174   5.076   0.144  1.1569  0.0868 -2.4811
 3265SOL    HW211216   3.183   4.927   0.170 -0.7296  0.3072 -0.2964
 3266SOL     OW11217   2.214   6.877   3.660  0.5156 -0.2938  0.2853
 3266SOL    HW111218   2.193   6.821   3.735  0.0893  1.0315  1.2096
 3266SOL    HW211219   2.159   6.844   3.589  0.2901 -1.0419  0.7938
 3267SOL     OW11220   7.110   1.162   7.344  0.3147 -0.7365  0.5221
 3267SOL    HW111221   7.116   1.107   7.267 -1.0114  0.3576 -0.4104
 3267SOL    HW211222   7.017   1.160   7.369  0.6087 -0.5834  1.7207
 3268SOL     OW11223   3.353   6.767   3.623  0.2804 -0.4446 -0.4381
 3268SOL    HW111224   3.281   6.830   3.619 -0.5710 -1.2685  0.8166
 3268SOL    HW211225   3.432   6.821   3.630 -0.4686  0.5216  1.2935
 3269SOL     OW11226   7.191   3.992   7.283 -0.2226 -0.8970 -0.0271
 3269SOL    HW111227   7.211   3.901   7.258  1.6266 -0.6194  0.3124
 3269SOL    HW211228   7.097   3.992   7.297 -0.5988 -2.2738 -2.0375
 3270SOL     OW11229   3.988   4.783   1.155  0.1615 -0.2308  0.3198
 3270SOL    HW111230   3.943   4.718   1.209 -1.3499  0.9587  0.5792
 3270SOL    HW211231   4.043   4.831   1.216 -0.6657  0.3570  0.6307
 3271SOL     OW11232   7.866   6.722   4.748  0.2782 -0.0881  0.5698
 3271SOL    HW111233   7.790   6.775   4.725 -1.1982 -2.3730 -0.1963
 3271SOL    HW211234   7.850   6.696   4.839  1.4604  1.4467  1.2546
 3272SOL     OW11235   6.104   0.816   0.102 -0.3681 -0.2724 -0.4843
 3272SOL    HW111236   6.075   0.882   0.164 -0.9635  0.1601 -1.2135
 3272SOL    HW211237   6.023   0.780   0.065 -0.0190  0.1084 -1.6622
 3273SOL     OW11238   7.085   4.184   7.564  0.5360 -0.3370 -0.8201
 3273SOL    HW111239   7.118   4.097   7.584 -1.2973 -1.1949 -1.2547
 3273SOL    HW211240   7.109   4.237   7.640 -0.0643 -1.7348  0.3944
 3274SOL     OW11241   3.547   2.417   2.878 -0.0094 -0.0325  0.1731
 3274SOL    HW111242   3.590   2.481   2.935  0.6755  1.3895 -1.7880
 3274SOL    HW211243   3.487   2.469   2.824  0.6666 -0.9648 -1.5893
 3275SOL     OW11244   5.686   0.240   1.442  0.2119 -0.4010 -0.0445
 3275SOL    HW111245   5.639   0.258   1.524 -1.8355 -2.1160 -0.7385
 3275SOL    HW211246   5.617   0.223   1.379  1.7900 -1.6314 -1.5212
 3276SOL     OW11247   1.983   2.331   3.181 -0.4220 -0.1490  0.2068
 3276SOL    HW111248   2.046   2.321   3.253 -1.0198 -0.4737  0.6929
 3276SOL    HW211249   2.037   2.330   3.102  0.0074 -2.6444  0.4671
 3277SOL     OW11250   7.018   2.770   7.012  0.3285  0.1002  0.4185
 3277SOL    HW111251   7.102   2.737   7.044  0.5951 -1.6969 -1.8379
 3277SOL    HW211252   7.012   2.859   7.047  4.1202  1.0517 -0.8655
 3278SOL     OW11253   2.899   5.114   3.514 -0.0660  0.6121 -0.3003
 3278SOL    HW111254   2.823   5.104   3.570  0.6270 -0.9670  0.4123
 3278SOL    HW211255   2.934   5.201   3.537 -0.5449  0.5376  0.7771
 3279SOL     OW11256   4.588   1.169   1.112 -0.4615 -0.0819  0.2270
 3279SOL    HW111257   4.680   1.162   1.086 -0.5870 -2.4945  0.1713
 3279SOL    HW211258   4.572   1.263   1.121  1.9909  0.3989  0.2136
 3280SOL     OW11259   0.671   2.182   4.228 -0.0412 -0.5782  0.8540
 3280SOL    HW111260   0.611   2.131   4.282  0.2616 -2.0239 -0.0994
 3280SOL    HW211261   0.618   2.211   4.154 -0.1650  0.3791  1.2972
 3281SOL     OW11262   2.638   3.573   8.016  0.5317 -0.2103  0.0386
 3281SOL    HW111263   2.633   3.656   7.968  2.6067  0.3904  0.7500
 3281SOL    HW211264   2.570   3.580   8.083  1.1958  1.2938  0.5987
 3282SOL     OW11265   0.273   6.477   1.737  0.2155 -0.1520 -0.0545
 3282SOL    HW111266   0.277   6.535   1.662 -0.3572 -0.3280 -0.2259
 3282SOL    HW211267   0.186   6.493   1.775  0.0482 -0.9019 -0.1134
 3283SOL     OW11268   2.559   3.165   1.250 -0.1185 -0.1030  0.1689
 3283SOL    HW111269   2.617   3.133   1.181 -1.6278  0.9324 -1.6655
 3283SOL    HW211270   2.618   3.209   1.311  1.2535 -0.9566 -0.4856
 3284SOL     OW11271   6.111   6.102   2.239 -0.3360 -0.1452 -0.1656
 3284SOL    HW111272   6.037   6.136   2.289 -0.1035  0.0248  0.0616
 3284SOL    HW211273   6.071   6.061   2.162 -0.6409  0.2830 -0.2387
 3285SOL     OW11274   7.614   5.678   5.335  0.2580 -0.1943 -0.6767
 3285SOL    HW111275   7.573   5.627   5.404  0.3158  0.5837 -0.0461
 3285SOL    HW211276   7.583   5.768   5.349 -0.2611 -0.1237 -2.0742
 3286SOL     OW11277   1.915   3.816   1.433  0.1700  0.1203  0.0481
 3286SOL    HW111278   1.909   3.735   1.484  1.9308 -0.5740 -0.7692
 3286SOL    HW211279   2.009   3.830   1.422 -0.0521  2.7489  0.8619
 3287SOL     OW11280   7.881   2.075   1.026 -0.2684 -0.0408 -0.1868
 3287SOL    HW111281   7.951   2.043   0.968  1.9705 -0.0828  2.3623
 3287SOL    HW211282   7.889   2.171   1.022 -0.1104 -0.0443  0.0751
 3288SOL     OW11283   0.550   4.142   7.669  0.4100  0.4300  0.1471
 3288SOL    HW111284   0.607   4.212   7.637 -1.2357  1.6587 -0.2339
 3288SOL    HW211285   0.561   4.071   7.606  1.2732  0.7644 -0.0853
 3289SOL     OW11286   3.039   6.225   1.403 -0.0679  0.0471  0.0981
 3289SOL    HW111287   3.019   6.251   1.493  0.4675 -1.1558  0.5964
 3289SOL    HW211288   3.118   6.171   1.412 -1.7186 -2.6771 -0.6829
 3290SOL     OW11289   6.170   5.256   1.707 -0.1021  0.1178 -0.5633
 3290SOL    HW111290   6.112   5.296   1.643 -1.9764 -0.5365  0.6336
 3290SOL    HW211291   6.133   5.169   1.722  1.5648 -0.5720 -0.2004
 3291SOL     OW11292   0.304   3.177   0.666  0.0983  0.0314  0.5680
 3291SOL    HW111293   0.240   3.224   0.612  0.9510  1.2480  0.5582
 3291SOL    HW211294   0.325   3.239   0.736 -0.2219 -1.1263  1.7434
 3292SOL     OW11295   5.001   2.173   3.319  0.4303 -0.4426  0.0262
 3292SOL    HW111296   4.935   2.242   3.315 -0.8353 -1.5225  1.4494
 3292SOL    HW211297   5.018   2.151   3.227 -1.7635 -0.6831 -0.3666
 3293SOL     OW11298   0.870   4.061   1.217 -0.3663 -0.5750 -0.3722
 3293SOL    HW111299   0.870   4.150   1.182 -2.5763 -0.3177  0.1634
 3293SOL    HW211300   0.953   4.054   1.264 -0.6964  1.6550  0.6625
 3294SOL     OW11301   7.141   2.356   7.569 -0.2065 -0.3312 -0.2322
 3294SOL    HW111302   7.235   2.356   7.586 -0.1640 -0.0772 -0.4644
 3294SOL    HW211303   7.128   2.425   7.503 -0.3863 -1.1598 -1.0853
 3295SOL     OW11304   5.242   1.389   0.120 -0.3451  0.3115  0.0845
 3295SOL    HW111305   5.315   1.441   0.154 -0.0181  0.1338 -0.3305
 3295SOL    HW211306   5.217   1.434   0.039 -0.5118  0.2170  0.0838
 3296SOL     OW11307   0.842   6.330   3.879 -0.4987 -0.4651  0.0611
 3296SOL    HW111308   0.784   6.351   3.952 -1.7658 -0.6973 -0.8541
 3296SOL    HW211309   0.900   6.262   3.914 -0.6201 -0.0708  1.0539
 3297SOL     OW11310   4.682   4.613   1.290 -0.1578 -0.3024  0.2786
 3297SOL    HW111311   4.721   4.695   1.320 -0.4263 -1.0307  2.8306
 3297SOL    HW211312   4.736   4.588   1.214  0.4960  1.7311  0.0015
 3298SOL     OW11313   1.828   1.814   4.555 -0.2197 -0.4286  0.3837
 3298SOL    HW111314   1.870   1.796   4.471 -1.3989  0.9740 -0.5640
 3298SOL    HW211315   1.900   1.823   4.617  0.6890 -1.1254 -0.5416
 3299SOL     OW11316   2.096   2.422   6.184 -0.0006  0.2346  0.1404
 3299SOL    HW111317   2.043   2.426   6.105 -0.9395  0.7862  0.7760
 3299SOL    HW211318   2.068   2.342   6.228 -0.3044  0.5164  0.4673
 3300SOL     OW11319   7.068   2.108   2.456 -0.1166 -0.0120 -0.2508
 3300SOL    HW111320   7.016   2.124   2.535 -0.3230  0.7399 -0.5346
 3300SOL    HW211321   7.144   2.059   2.488 -0.1414  0.3793  0.4417
 3301SOL     OW11322   4.539   3.753   5.875  0.5617 -0.2054  0.4218
 3301SOL    HW111323   4.529   3.848   5.868  0.4421 -0.2447  0.0426
 3301SOL    HW211324   4.623   3.735   5.831 -0.3789 -0.4982 -1.3575
 3302SOL     OW11325   1.479   5.011   0.027  0.2672 -0.2591  0.6042
 3302SOL    HW111326   1.485   5.106   0.022 -1.3593 -0.1161  0.6367
 3302SOL    HW211327   1.494   4.991   0.119  1.4334 -0.1333  0.4574
 3303SOL     OW11328   3.168   3.128   1.291 -0.2106 -0.1248  0.1295
 3303SOL    HW111329   3.230   3.093   1.355 -1.7709  0.3165  1.9773
 3303SOL    HW211330   3.148   3.054   1.234  1.8047 -0.3320 -0.3678
 3304SOL     OW11331   7.385   4.338   3.797 -0.0183  0.1249 -0.5008
 3304SOL    HW111332   7.455   4.280   3.825 -1.6176 -1.4174  0.4997
 3304SOL    HW211333   7.363   4.308   3.708 -0.4821 -0.4701 -0.1903
 3305SOL     OW11334   3.492   1.659   3.502  0.4309  0.1990 -0.1166
 3305SOL    HW111335   3.499   1.722   3.430  1.1900  1.0455  0.6852
 3305SOL    HW211336   3.408   1.679   3.543  0.2794  0.1186 -0.3830
 3306SOL     OW11337   2.132   3.268   6.066  0.1464 -0.6613  0.1053
 3306SOL    HW111338   2.080   3.299   5.991 -0.4999  0.6967  1.0617
 3306SOL    HW211339   2.147   3.175   6.049  1.5467 -0.0410 -2.5768
 3307SOL     OW11340   1.544   4.847   1.080  0.2634 -0.0864  0.3376
 3307SOL    HW111341   1.628   4.802   1.073  0.2981  0.1952 -1.3890
 3307SOL    HW211342   1.551   4.921   1.020 -1.3461 -0.2784 -0.1373
 3308SOL     OW11343   7.198   0.199   5.158  0.4176  0.4563  0.2494
 3308SOL    HW111344   7.243   0.281   5.136  2.5263 -1.0338 -1.3835
 3308SOL    HW211345   7.262   0.149   5.209 -0.7055 -0.3511  0.9187
 3309SOL     OW11346   2.409   3.941   1.041 -0.4096 -0.3026  0.0771
 3309SOL    HW111347   2.414   3.942   0.945 -0.7077  1.6096  0.0554
 3309SOL    HW211348   2.316   3.935   1.061 -0.3477 -0.7119  0.2682
 3310SOL     OW11349   6.317   1.956   1.137 -0.0704  0.0595 -0.2149
 3310SOL    HW111350   6.227   1.926   1.122  0.5696 -1.3561 -1.4163
 3310SOL    HW211351   6.346   1.906   1.214 -0.0474 -0.1126 -0.3332
 3311SOL     OW11352   2.820   0.363   1.291  0.1460  0.0432 -0.2742
 3311SOL    HW111353   2.806   0.397   1.202  0.9830 -0.8447 -0.7700
 3311SOL    HW211354   2.810   0.268   1.281 -0.2438 -0.0269  0.6938
 3312SOL     OW11355   2.875   7.162   6.751  0.1107  0.5831  0.3522
 3312SOL    HW111356   2.913   7.212   6.679 -0.9742  1.6337  0.4661
 3312SOL    HW211357   2.807   7.108   6.709  0.7942 -0.2792  0.3314
 3313SOL     OW11358   1.867   6.505   4.422 -0.5017 -0.4150 -0.3094
 3313SOL    HW111359   1.774   6.526   4.432 -0.3856 -0.2460  0.4850
 3313SOL    HW211360   1.885   6.521   4.330 -0.6855  1.9458 -0.0097
 3314SOL     OW11361   5.824   2.593   3.376  0.1370 -0.0449 -0.0789
 3314SOL    HW111362   5.785   2.506   3.364  0.3224 -0.3678  1.3690
 3314SOL    HW211363   5.899   2.595   3.318 -0.0469 -0.7440 -0.3466
 3315SOL     OW11364   6.506   3.073   2.694  0.6269 -0.4879  0.1203
 3315SOL    HW111365   6.557   3.016   2.636 -0.5550 -0.1297 -1.3391
 3315SOL    HW211366   6.547   3.160   2.684  0.4268 -0.4272 -0.1868
 3316SOL     OW11367   6.518   2.247   7.114 -0.1208  0.0890 -0.2384
 3316SOL    HW111368   6.518   2.328   7.165  0.8428  0.4598 -0.7899
 3316SOL    HW211369   6.545   2.274   7.026  1.0487 -0.9313 -0.2249
 3317SOL     OW11370   1.864   2.830   5.770 -0.2206  0.8355  0.3584
 3317SOL    HW111371   1.865   2.873   5.684  0.6771  0.5049  0.1889
 3317SOL    HW211372   1.916   2.751   5.757 -1.4652 -0.0724  0.7846
 3318SOL     OW11373   4.006   7.368   4.323 -0.4651  0.5928 -0.9610
 3318SOL    HW111374   4.082   7.342   4.269 -0.5022  0.2495 -0.8502
 3318SOL    HW211375   4.044   7.395   4.406 -0.5398 -0.5736 -0.5426
 3319SOL     OW11376   0.614   5.824   0.821 -0.1239 -0.4890  0.7243
 3319SOL    HW111377   0.619   5.821   0.726 -0.6804 -0.0571  0.6732
 3319SOL    HW211378   0.644   5.912   0.844  0.0951 -0.6227  0.9555
 3320SOL     OW11379   8.004   3.526   2.411 -0.6592  0.2752 -0.5719
 3320SOL    HW111380   7.998   3.502   2.318 -2.2773  0.3253 -0.5116
 3320SOL    HW211381   7.953   3.606   2.418 -0.1179  0.5477  0.2766
 3321SOL     OW11382   4.758   7.924   3.160 -0.0668  0.2000 -0.3651
 3321SOL    HW111383   4.772   8.018   3.148  3.0672 -0.1145  0.0932
 3321SOL    HW211384   4.737   7.892   3.072  2.8822  0.8299 -1.4256
 3322SOL     OW11385   0.177   6.065   1.295 -0.4354  0.4269 -0.2138
 3322SOL    HW111386   0.222   6.129   1.351  1.1881  0.4923 -1.5085
 3322SOL    HW211387   0.248   6.019   1.250 -1.6719  0.3593 -2.2021
 3323SOL     OW11388   2.474   7.115   0.901  0.0920 -0.0337  0.4754
 3323SOL    HW111389   2.554   7.096   0.950  0.6150 -0.1301 -0.3962
 3323SOL    HW211390   2.436   7.189   0.946  1.1186  0.5524  0.4136
 3324SOL     OW11391   0.524   1.712   5.320 -0.0986 -0.1306  0.4600
 3324SOL    HW111392   0.534   1.770   5.396 -0.3601  0.4187  0.0811
 3324SOL    HW211393   0.430   1.694   5.316 -0.2704  0.8916 -0.4897
 3325SOL     OW11394   1.421   2.113   0.190  0.1324  0.0938  0.1672
 3325SOL    HW111395   1.513   2.113   0.167 -0.1606  1.8239 -1.1802
 3325SOL    HW211396   1.408   2.195   0.239 -0.5105 -0.6101  1.2277
 3326SOL     OW11397   7.477   3.447   7.418  0.3292  0.2724 -0.1926
 3326SOL    HW111398   7.514   3.524   7.376  0.2762  0.3123 -0.1663
 3326SOL    HW211399   7.395   3.478   7.457 -0.6987 -0.2130 -1.8401
 3327SOL     OW11400   5.718   1.247   1.307 -0.9008 -0.0293 -0.6381
 3327SOL    HW111401   5.656   1.258   1.235 -1.9860  0.0656  0.2845
 3327SOL    HW211402   5.691   1.312   1.372 -0.2421 -0.4371  0.0603
 3328SOL     OW11403   7.248   1.523   6.891  0.3495  0.6607 -0.3203
 3328SOL    HW111404   7.298   1.555   6.966  0.2327  0.7384 -0.2756
 3328SOL    HW211405   7.204   1.445   6.923  2.6371 -1.0706 -1.1065
 3329SOL     OW11406   7.926   6.784   7.722 -0.3139 -0.1610  0.9076
 3329SOL    HW111407   7.850   6.789   7.664 -0.5937 -1.5647  1.1193
 3329SOL    HW211408   7.893   6.740   7.800  1.4505 -4.3798 -0.4319
 3330SOL     OW11409   1.888   2.755   4.301  0.0213 -0.6173 -0.5527
 3330SOL    HW111410   1.807   2.740   4.351  0.0978  0.3823 -0.0988
 3330SOL    HW211411   1.899   2.676   4.249 -0.0312 -1.7484  1.0737
 3331SOL     OW11412   7.631   1.898   5.011  0.3432 -0.3042 -0.4066
 3331SOL    HW111413   7.630   1.985   4.971 -0.1617 -0.1892 -0.1492
 3331SOL    HW211414   7.569   1.904   5.083  2.0991 -0.1396  1.1674
 3332SOL     OW11415   2.375   1.281   0.987  0.6464  0.3549 -0.0144
 3332SOL    HW111416   2.380   1.316   1.076 -0.0059 -0.1826  0.2404
 3332SOL    HW211417   2.407   1.352   0.931  0.5229  0.9024  0.5998
 3333SOL     OW11418   3.846   4.058   7.649  0.7924  0.1644  0.2724
 3333SOL    HW111419   3.787   4.133   7.639  1.7077  0.9250  0.3949
 3333SOL    HW211420   3.823   4.021   7.734  0.6453  0.5984  0.4273
 3334SOL     OW11421   6.428   3.460   6.517 -0.1872  0.5171 -0.3997
 3334SOL    HW111422   6.355   3.510   6.554 -0.4731 -0.5574  0.5345
 3334SOL    HW211423   6.398   3.434   6.430 -0.9812 -0.0204  0.0236
 3335SOL     OW11424   1.037   1.447   7.083 -0.5044  0.4006  0.2297
 3335SOL    HW111425   1.108   1.447   7.019  0.0478  2.5048  0.7440
 3335SOL    HW211426   1.001   1.358   7.080  0.0380  0.1927 -2.3496
 3336SOL     OW11427   6.206   5.390   6.326  0.1970 -0.2170  0.4316
 3336SOL    HW111428   6.110   5.393   6.329  0.0352 -0.8915 -1.9467
 3336SOL    HW211429   6.226   5.343   6.245  2.5616  2.3051 -0.6272
 3337SOL     OW11430   6.593   4.298   5.004  0.2081 -0.5363  0.3650
 3337SOL    HW111431   6.634   4.379   5.035  0.0290 -0.9282  1.6804
 3337SOL    HW211432   6.648   4.228   5.039 -0.5839 -1.0233  0.6490
 3338SOL     OW11433   3.163   2.827   4.995 -1.1050 -0.4113  0.3841
 3338SOL    HW111434   3.180   2.846   5.087 -1.2180 -1.0044  0.5312
 3338SOL    HW211435   3.135   2.910   4.958  0.2398  0.1626  0.5728
 3339SOL     OW11436   3.692   6.682   6.921  0.0280  0.2210 -0.1126
 3339SOL    HW111437   3.731   6.763   6.954  1.6180 -0.0471 -1.2176
 3339SOL    HW211438   3.672   6.699   6.829 -0.8841 -0.2282 -0.0156
 3340SOL     OW11439   3.882   4.983   7.896 -0.5107  0.0996 -0.3342
 3340SOL    HW111440   3.966   4.954   7.933 -0.2714 -0.4273 -1.2399
 3340SOL    HW211441   3.816   4.939   7.949 -0.1966  0.1013  0.0614
 3341SOL     OW11442   4.865   1.024   2.780  0.3326 -0.0832 -0.1292
 3341SOL    HW111443   4.960   1.018   2.771  0.2458 -2.0984 -0.0875
 3341SOL    HW211444   4.834   0.935   2.769 -1.5435  0.4827  0.2119
 3342SOL     OW11445   2.278   1.988   3.382  0.3980  0.2516 -0.4359
 3342SOL    HW111446   2.332   2.067   3.381 -1.5521  1.6499 -0.4353
 3342SOL    HW211447   2.218   1.999   3.308 -2.0609  0.4005  1.4578
 3343SOL     OW11448   1.245   4.695   3.177  0.2721 -0.1487 -1.0612
 3343SOL    HW111449   1.205   4.773   3.138 -0.7560 -0.7571 -1.2575
 3343SOL    HW211450   1.284   4.649   3.103 -1.0502 -0.9318 -1.3089
 3344SOL     OW11451   0.523   5.196   5.447  0.0133  0.1384  0.2002
 3344SOL    HW111452   0.609   5.215   5.410 -0.4318  1.4594 -0.2308
 3344SOL    HW211453   0.501   5.274   5.498 -0.7295 -0.3777  0.6995
 3345SOL     OW11454   3.026   0.943   1.165  0.3050 -0.8040  0.0598
 3345SOL    HW111455   2.961   0.971   1.230  0.1311  0.3368 -0.5748
 3345SOL    HW211456   3.020   1.009   1.096  0.5930 -1.9033 -1.0500
 3346SOL     OW11457   3.857   7.077   1.666  0.0238 -0.6820  0.1416
 3346SOL    HW111458   3.806   7.015   1.718  0.1914 -0.3228  0.7449
 3346SOL    HW211459   3.920   7.022   1.619  0.0495 -0.9937  0.5305
 3347SOL     OW11460   1.354   2.405   3.883 -0.3367  0.7115  0.6110
 3347SOL    HW111461   1.261   2.403   3.864 -0.1108  1.7396 -0.8164
 3347SOL    HW211462   1.392   2.337   3.827 -0.3727 -0.9037  2.4420
 3348SOL     OW11463   4.174   5.495   0.996  0.2055 -0.2702 -0.3615
 3348SOL    HW111464   4.203   5.456   0.913 -0.2262 -0.7195 -0.3082
 3348SOL    HW211465   4.097   5.546   0.973  0.9707  0.8675 -0.4910
 3349SOL     OW11466   2.194   0.466   1.601  0.5299  0.5788 -0.8683
 3349SOL    HW111467   2.185   0.378   1.638 -2.1173  1.5563  1.1744
 3349SOL    HW211468   2.198   0.452   1.507  1.3541 -1.7669 -0.5617
 3350SOL     OW11469   4.007   5.552   1.869  0.4349  0.6232  0.0455
 3350SOL    HW111470   4.068   5.625   1.873  1.3964 -0.1487 -0.1043
 3350SOL    HW211471   3.936   5.583   1.812  1.5150  0.9595 -1.1773
 3351SOL     OW11472   2.559   6.475   5.483  0.7419  0.1222 -0.8201
 3351SOL    HW111473   2.590   6.437   5.565 -0.3913 -1.2193 -0.9708
 3351SOL    HW211474   2.498   6.543   5.508 -1.6963 -2.0322 -0.4314
 3352SOL     OW11475   3.294   4.623   2.080  0.2902  0.2556 -0.1434
 3352SOL    HW111476   3.212   4.672   2.068 -0.6808 -1.3323 -0.2768
 3352SOL    HW211477   3.333   4.620   1.993 -0.0094  0.1636 -0.2746
 3353SOL     OW11478   6.821   3.022   7.860 -0.9759  0.1306  0.2305
 3353SOL    HW111479   6.795   3.003   7.770 -1.4256 -0.6008  0.5049
 3353SOL    HW211480   6.828   3.118   7.864 -4.6089  0.5312  0.3677
 3354SOL     OW11481   5.044   4.338   5.691 -0.0057 -0.3224 -0.5215
 3354SOL    HW111482   5.116   4.391   5.656  0.7369 -0.8953  0.1060
 3354SOL    HW211483   5.070   4.248   5.675  0.1088 -0.5843  1.0189
 3355SOL     OW11484   6.047   1.146   0.002  0.4408  0.1313  0.2576
 3355SOL    HW111485   6.037   1.129  -0.092  2.3188 -2.8423  0.4421
 3355SOL    HW211486   6.141   1.142   0.017  0.1584  0.0669  2.3406
 3356SOL     OW11487   5.658   5.847   7.148  0.3685  0.0213 -0.1963
 3356SOL    HW111488   5.675   5.819   7.058  1.2392 -1.3497  0.3544
 3356SOL    HW211489   5.589   5.789   7.179 -0.2993  0.8360 -0.1344
 3357SOL     OW11490   1.981   1.926   5.069  0.6003 -0.3068  0.2468
 3357SOL    HW111491   2.066   1.950   5.032 -0.2090  2.7847  0.0821
 3357SOL    HW211492   1.918   1.978   5.020 -1.1375 -0.6487  1.9683
 3358SOL     OW11493   5.496   2.079   4.048  0.1351  0.1142  0.2447
 3358SOL    HW111494   5.487   1.986   4.029  1.8508 -0.5981  2.5034
 3358SOL    HW211495   5.441   2.093   4.125  0.1732  0.8985  0.1360
 3359SOL     OW11496   7.838   2.802   6.336 -0.2600  0.2694 -0.0082
 3359SOL    HW111497   7.796   2.843   6.412  0.1138  0.4458  0.1018
 3359SOL    HW211498   7.767   2.792   6.272 -0.1610  1.9438 -0.4058
 3360SOL     OW11499   7.123   6.972   6.051 -0.2531  0.0138  0.4452
 3360SOL    HW111500   7.218   6.957   6.055 -0.0459  1.2759  0.6824
 3360SOL    HW211501   7.107   7.000   5.961 -0.4425 -0.4108  0.3439
 3361SOL     OW11502   5.813   1.275   4.650  0.0415  0.2376  0.3345
 3361SOL    HW111503   5.853   1.318   4.726 -0.2837  0.0548  0.6124
 3361SOL    HW211504   5.805   1.183   4.675  0.6763  0.0171 -0.2365
 3362SOL     OW11505   2.168   0.355   4.951  0.0941 -0.0754 -0.2442
 3362SOL    HW111506   2.092   0.388   4.997  0.7811  0.7584  0.3324
 3362SOL    HW211507   2.226   0.431   4.943 -0.2392 -0.0009 -3.0595
 3363SOL     OW11508   6.677   1.464   0.395  0.3168  0.1607  0.3845
 3363SOL    HW111509   6.760   1.493   0.357  0.6949  1.1599  1.8839
 3363SOL    HW211510   6.689   1.474   0.490 -0.1639 -3.2986  0.9235
 3364SOL     OW11511   7.553   4.711   7.248 -0.1447 -0.1432 -0.8320
 3364SOL    HW111512   7.593   4.627   7.223  1.2396  0.5158 -0.9052
 3364SOL    HW211513   7.575   4.770   7.175  0.8711  0.8733  0.2640
 3365SOL     OW11514   7.811   0.471   3.944 -0.3121 -0.2962  0.5342
 3365SOL    HW111515   7.863   0.422   3.881  0.6503  0.6637  0.5585
 3365SOL    HW211516   7.875   0.507   4.006 -0.9681  0.9893  0.5123
 3366SOL     OW11517   7.996   1.143   4.478 -0.2411  0.3336 -0.0794
 3366SOL    HW111518   8.043   1.180   4.553  0.8201  1.1219 -1.1001
 3366SOL    HW211519   8.020   1.050   4.478 -0.6922  0.2075  0.8688
 3367SOL     OW11520   3.129   4.312   5.803  0.3070 -0.3637  0.3912
 3367SOL    HW111521   3.057   4.371   5.782  0.3113 -0.0852  1.1563
 3367SOL    HW211522   3.130   4.249   5.731  0.1345  0.4017 -0.2923
 3368SOL     OW11523   2.683   0.206   4.764 -0.0458 -0.5319  0.4259
 3368SOL    HW111524   2.654   0.124   4.805  0.6916 -0.1028  1.9027
 3368SOL    HW211525   2.658   0.197   4.672 -3.4849 -0.8085  1.2283
 3369SOL     OW11526   1.829   7.574   0.456  0.4384 -0.4918 -0.2149
 3369SOL    HW111527   1.923   7.588   0.451  0.5015 -0.0183  1.5861
 3369SOL    HW211528   1.816   7.524   0.536 -0.8657 -0.2460 -0.2465
 3370SOL     OW11529   4.044   0.193   4.449  0.3041  0.3099  0.3685
 3370SOL    HW111530   3.959   0.234   4.431  0.0322 -0.6674 -0.6792
 3370SOL    HW211531   4.027   0.134   4.521 -0.3760 -1.2446 -1.0078
 3371SOL     OW11532   7.831   7.890   1.909  0.3881  0.3677  0.1423
 3371SOL    HW111533   7.817   7.827   1.980  0.8554 -1.0354 -0.9554
 3371SOL    HW211534   7.923   7.916   1.919  1.5548 -2.4279 -1.8294
 3372SOL     OW11535   4.736   0.864   3.579 -0.9830 -0.0568 -0.6483
 3372SOL    HW111536   4.782   0.790   3.619 -1.3282 -0.5498 -1.1504
 3372SOL    HW211537   4.738   0.844   3.485 -0.9610  0.6422 -0.7960
 3373SOL     OW11538   4.560   6.838   3.386 -0.0215  0.1488 -0.2834
 3373SOL    HW111539   4.497   6.862   3.318  1.4145  2.5341 -0.8630
 3373SOL    HW211540   4.551   6.906   3.452  0.7517 -0.4446  0.4578
 3374SOL     OW11541   0.169   2.399   5.796 -0.2869  0.0210 -0.0401
 3374SOL    HW111542   0.097   2.460   5.810 -0.2643 -0.6276  4.7457
 3374SOL    HW211543   0.222   2.439   5.727 -3.4885  2.1157 -1.5065
 3375SOL     OW11544   1.446   2.917   7.686 -0.4467 -0.1424  0.2834
 3375SOL    HW111545   1.359   2.882   7.669 -0.2898 -0.6373  0.4958
 3375SOL    HW211546   1.479   2.867   7.761  0.7760 -1.3209 -0.9694
 3376SOL     OW11547   1.184   3.302   3.562  0.0410 -0.5827  0.1685
 3376SOL    HW111548   1.166   3.320   3.470  0.5670 -0.6235  0.0580
 3376SOL    HW211549   1.212   3.386   3.598  1.9515 -1.0045 -0.2194
 3377SOL     OW11550   1.104   5.238   3.484 -0.2053  0.2080  0.4231
 3377SOL    HW111551   1.088   5.245   3.578  0.2904 -0.5137  0.5698
 3377SOL    HW211552   1.019   5.215   3.447 -0.1202 -0.8586  0.8653
 3378SOL     OW11553   3.621   7.475   8.057  0.7694 -0.1522  0.0259
 3378SOL    HW111554   3.529   7.491   8.076  1.0715  0.0079  1.4816
 3378SOL    HW211555   3.625   7.385   8.026  0.3263 -0.7022  1.5361
 3379SOL     OW11556   4.944   1.781   7.590 -0.1031 -0.7110 -0.5212
 3379SOL    HW111557   4.959   1.842   7.518 -1.7287 -0.4085 -0.6299
 3379SOL    HW211558   4.932   1.696   7.547 -1.2035 -0.5079 -0.6302
 3380SOL     OW11559   3.116   4.221   3.327 -0.0986  0.3292  0.0253
 3380SOL    HW111560   3.084   4.137   3.360 -1.6321  1.2101  0.9084
 3380SOL    HW211561   3.181   4.198   3.261 -0.2850 -1.5398  0.4396
 3381SOL     OW11562   2.381   3.545   2.551 -0.7430 -0.2850  0.2103
 3381SOL    HW111563   2.432   3.486   2.495 -0.7860  1.8215 -2.2608
 3381SOL    HW211564   2.428   3.546   2.634  0.9142 -1.5163 -0.6430
 3382SOL     OW11565   4.173   5.913   2.075 -0.3301  1.1300 -0.7161
 3382SOL    HW111566   4.244   5.898   2.012  0.5626  0.0633  0.4897
 3382SOL    HW211567   4.207   5.983   2.132 -0.5158  1.0687 -0.5310
 3383SOL     OW11568   7.644   2.997   3.825  0.1957 -0.3235  0.2548
 3383SOL    HW111569   7.625   3.032   3.739 -1.9842 -0.8812  0.4471
 3383SOL    HW211570   7.584   3.042   3.884  2.3294  0.8009  1.7135
 3384SOL     OW11571   1.993   7.431   7.131 -0.2505 -0.1000 -0.5409
 3384SOL    HW111572   1.916   7.439   7.186  0.4261  1.8156  0.2178
 3384SOL    HW211573   2.010   7.520   7.100  1.6847 -0.4437 -0.6142
 3385SOL     OW11574   7.412   5.103   3.594 -0.1583 -0.8133 -0.1907
 3385SOL    HW111575   7.449   5.058   3.670  2.1679  1.7679  0.4061
 3385SOL    HW211576   7.456   5.064   3.519  1.2938 -0.1373  0.2607
 3386SOL     OW11577   3.369   6.819   2.237  0.0938 -0.2385 -0.0306
 3386SOL    HW111578   3.414   6.903   2.231  0.1782 -0.1698  1.3636
 3386SOL    HW211579   3.301   6.832   2.303 -1.7604 -0.4711 -1.7804
 3387SOL     OW11580   7.519   6.773   6.996 -0.1837 -0.3274  0.3047
 3387SOL    HW111581   7.503   6.701   7.057 -1.9099 -1.8725 -1.7899
 3387SOL    HW211582   7.435   6.818   6.991  0.2542  0.4560 -0.0822
 3388SOL     OW11583   5.620   1.488   5.167 -0.3576 -0.3587  0.2926
 3388SOL    HW111584   5.638   1.398   5.195  3.0282 -0.1761 -0.8325
 3388SOL    HW211585   5.576   1.479   5.083 -0.1395 -0.9545  0.2397
 3389SOL     OW11586   6.416   5.219   7.848  0.7773  0.2723 -0.4708
 3389SOL    HW111587   6.384   5.176   7.768  0.7269  0.5019 -0.5737
 3389SOL    HW211588   6.437   5.308   7.821  0.6006  0.4007 -0.1906
 3390SOL     OW11589   3.001   7.605   6.453  0.4032  0.3149 -0.0991
 3390SOL    HW111590   2.971   7.688   6.490 -0.8137  0.2341 -0.8433
 3390SOL    HW211591   3.077   7.629   6.400 -0.0572  0.9896 -0.4704
 3391SOL     OW11592   7.040   1.439   3.831  0.1270  0.1178 -0.3383
 3391SOL    HW111593   7.021   1.470   3.742 -0.5547  0.5449 -0.0500
 3391SOL    HW211594   6.975   1.483   3.886  0.1624 -0.6099  0.2944
 3392SOL     OW11595   1.821   1.371   7.453 -0.1783 -0.0273  0.6162
 3392SOL    HW111596   1.871   1.322   7.518 -0.9557 -0.4925  0.8738
 3392SOL    HW211597   1.793   1.451   7.498  3.1167  1.9726 -0.4649
 3393SOL     OW11598   6.204   5.546   4.974  0.3061  0.4090  0.9664
 3393SOL    HW111599   6.252   5.537   4.892 -0.0277 -1.4151  0.9341
 3393SOL    HW211600   6.152   5.626   4.962  0.9014  0.6400 -0.2480
 3394SOL     OW11601   0.933   0.718   2.784  0.3828  0.1287  0.1255
 3394SOL    HW111602   0.874   0.667   2.839 -0.3732 -1.1187 -1.7626
 3394SOL    HW211603   0.922   0.683   2.696  1.4079  2.1681 -0.9111
 3395SOL     OW11604   5.519   4.892   2.908  0.9814  0.0021  0.3503
 3395SOL    HW111605   5.610   4.914   2.889  0.1191  1.9120 -2.1782
 3395SOL    HW211606   5.512   4.799   2.886  2.0711  0.1176 -0.5803
 3396SOL     OW11607   0.632   4.033   1.909 -0.0572  0.1245 -0.5272
 3396SOL    HW111608   0.556   4.011   1.855  0.3593 -1.0528 -0.6617
 3396SOL    HW211609   0.670   3.948   1.932  1.4253  0.6965 -0.7713
 3397SOL     OW11610   5.714   1.852   0.961  0.2654  1.1061 -0.2149
 3397SOL    HW111611   5.620   1.857   0.943 -0.2247 -1.1486  1.2742
 3397SOL    HW211612   5.741   1.768   0.926  1.6134  1.4749 -0.1124
 3398SOL     OW11613   3.348   0.732   6.378 -0.0801  0.1147 -0.1347
 3398SOL    HW111614   3.388   0.713   6.463  0.2946  1.1637 -0.0598
 3398SOL    HW211615   3.293   0.656   6.360 -1.5250  0.5949  1.8397
 3399SOL     OW11616   7.980   2.226   6.933  0.5532 -0.6642  0.7711
 3399SOL    HW111617   8.056   2.203   6.880  2.0594  1.1215  2.0288
 3399SOL    HW211618   8.001   2.194   7.021 -0.7695 -1.3297  0.8684
 3400SOL     OW11619   5.889   7.878   0.757 -0.0611  0.0389  0.4565
 3400SOL    HW111620   5.886   7.972   0.741 -1.1786  0.0534  0.6201
 3400SOL    HW211621   5.889   7.839   0.669  1.3590  0.1836  0.3714
 3401SOL     OW11622   4.109   4.507   4.593  0.3218 -0.3541  0.2323
 3401SOL    HW111623   4.094   4.601   4.581 -1.8163 -0.7541 -0.6722
 3401SOL    HW211624   4.160   4.501   4.674  0.5383  1.5844  0.2773
 3402SOL     OW11625   4.944   0.227   4.094 -0.0594  0.2213 -0.1505
 3402SOL    HW111626   4.968   0.146   4.139  1.2917  0.5552 -0.2303
 3402SOL    HW211627   4.936   0.202   4.002  1.4672  0.3716 -0.3481
 3403SOL     OW11628   0.077   2.474   2.014 -0.1371 -0.3167  0.4983
 3403SOL    HW111629   0.147   2.433   2.064 -0.9870 -2.1864  0.2543
 3403SOL    HW211630   0.084   2.435   1.927 -0.4495  0.7417 -0.0185
 3404SOL     OW11631   2.958   1.532   7.243 -0.8823 -0.1270 -0.1688
 3404SOL    HW111632   2.872   1.557   7.277 -1.0139 -1.5536  0.6803
 3404SOL    HW211633   2.964   1.438   7.261  0.9033 -0.0429 -0.0917
 3405SOL     OW11634   5.772   5.954   1.166  0.0746  0.2975 -0.0205
 3405SOL    HW111635   5.840   6.015   1.137  1.3900 -0.4823  1.2833
 3405SOL    HW211636   5.759   5.974   1.258  1.5439 -2.1952  0.8307
 3406SOL     OW11637   6.089   6.538   7.940  0.5368 -0.5837 -0.1413
 3406SOL    HW111638   6.082   6.633   7.941  0.7706 -0.5645 -0.3369
 3406SOL    HW211639   6.183   6.520   7.952  0.5080 -0.7849 -0.2088
 3407SOL     OW11640   6.448   0.416   0.694 -0.3861  0.5661 -0.1188
 3407SOL    HW111641   6.363   0.459   0.698 -0.9881 -0.6451  0.4511
 3407SOL    HW211642   6.432   0.327   0.725  0.9078  0.0301 -0.8983
 3408SOL     OW11643   4.049   7.575   4.764  0.3014  0.3645 -0.0499
 3408SOL    HW111644   4.137   7.614   4.767 -0.4593  2.1026  0.9720
 3408SOL    HW211645   4.018   7.593   4.675 -0.7210  3.9290  0.8421
 3409SOL     OW11646   4.599   4.383   7.605  0.1447  0.2860  0.2190
 3409SOL    HW111647   4.551   4.406   7.526  1.7414 -0.6698 -1.0854
 3409SOL    HW211648   4.594   4.461   7.660  0.3165  1.5444 -1.4754
 3410SOL     OW11649   0.885   0.334   5.585 -0.3917  0.0923 -0.4600
 3410SOL    HW111650   0.855   0.260   5.532 -1.0043  0.2158 -0.2946
 3410SOL    HW211651   0.820   0.403   5.568 -0.3518  0.2750  0.1109
 3411SOL     OW11652   7.121   7.284   1.978  0.4515  0.1167  0.1710
 3411SOL    HW111653   7.204   7.302   1.934  0.2889  0.8783  0.1673
 3411SOL    HW211654   7.124   7.190   1.997  0.8379 -0.0862 -0.8262
 3412SOL     OW11655   5.429   2.666   7.038  0.0443  0.2350 -0.1938
 3412SOL    HW111656   5.467   2.653   6.951 -0.4599  0.3624 -0.4403
 3412SOL    HW211657   5.500   2.702   7.091 -0.3956  2.9977 -1.3238
 3413SOL     OW11658   5.070   1.343   6.645 -0.3729  0.3350  0.1918
 3413SOL    HW111659   5.140   1.322   6.584 -0.4456 -0.1933  0.2861
 3413SOL    HW211660   5.079   1.437   6.662 -1.0845  0.7528 -1.5532
 3414SOL     OW11661   2.412   3.670   1.668 -0.1106 -0.1234  0.2680
 3414SOL    HW111662   2.487   3.642   1.616  0.1232 -0.5426  0.8201
 3414SOL    HW211663   2.387   3.755   1.632 -0.6218 -0.8684 -1.2324
 3415SOL     OW11664   7.487   4.863   0.318  0.3478  0.3972  0.5144
 3415SOL    HW111665   7.528   4.949   0.304  0.3769  0.3894  0.5552
 3415SOL    HW211666   7.479   4.855   0.413 -1.0876  1.0421  0.4825
 3416SOL     OW11667   3.849   1.203   3.950  0.9881 -0.3180 -0.1546
 3416SOL    HW111668   3.864   1.205   3.855 -0.3755 -0.6361 -0.4040
 3416SOL    HW211669   3.846   1.110   3.972  0.9059 -0.2475  0.1336
 3417SOL     OW11670   8.029   7.497   6.066  0.2857  0.0511 -0.1844
 3417SOL    HW111671   8.040   7.425   6.127  0.6448  0.8617  0.7466
 3417SOL    HW211672   8.049   7.460   5.980  1.2536 -0.7497  0.3726
 3418SOL     OW11673   2.710   1.913   7.846 -0.2374 -0.2294 -0.3620
 3418SOL    HW111674   2.768   1.969   7.794 -0.5102  0.7877  0.3923
 3418SOL    HW211675   2.765   1.880   7.916 -0.4336  0.3600  0.0836
 3419SOL     OW11676   2.831   4.412   3.732  0.2369 -0.1402 -0.0160
 3419SOL    HW111677   2.856   4.326   3.699  0.5167 -0.9250  2.1006
 3419SOL    HW211678   2.908   4.466   3.718  1.5930 -1.3411  2.2727
 3420SOL     OW11679   0.734   3.398   6.239  0.2587 -0.4845  0.0032
 3420SOL    HW111680   0.752   3.492   6.234 -1.6870  0.0679  1.9017
 3420SOL    HW211681   0.643   3.389   6.210  0.8088 -2.0100 -1.4329
 3421SOL     OW11682   4.607   3.135   5.306 -0.3080 -0.0378  0.3640
 3421SOL    HW111683   4.663   3.092   5.372  0.4124  1.2841  0.6443
 3421SOL    HW211684   4.519   3.132   5.344 -0.1528 -0.6217  0.6934
 3422SOL     OW11685   0.028   5.146   4.710  0.6128  0.1885  0.0279
 3422SOL    HW111686   0.083   5.068   4.708  1.5106  0.8213 -0.7024
 3422SOL    HW211687  -0.049   5.120   4.761  1.1657 -0.9865  0.2920
 3423SOL     OW11688   5.883   6.128   2.431  0.1831  0.1794  0.7131
 3423SOL    HW111689   5.891   6.168   2.518 -2.5783  2.6937 -0.0451
 3423SOL    HW211690   5.832   6.048   2.447 -0.9043  0.9699  1.3738
 3424SOL     OW11691   3.232   2.380   1.261  0.5314 -0.4781  0.2816
 3424SOL    HW111692   3.245   2.336   1.345  1.4578  0.2195  0.5286
 3424SOL    HW211693   3.277   2.324   1.197  0.0343 -0.8822  0.2765
 3425SOL     OW11694   0.529   0.973   1.373 -0.5287 -0.0903  0.4730
 3425SOL    HW111695   0.534   0.965   1.468 -2.4775  0.8449  0.7164
 3425SOL    HW211696   0.618   0.995   1.346 -0.3866  2.0864  2.3750
 3426SOL     OW11697   7.090   0.823   0.940  0.1766 -0.1205  0.0230
 3426SOL    HW111698   7.055   0.899   0.894 -1.3739 -1.6156 -1.4023
 3426SOL    HW211699   7.016   0.789   0.992  0.5697 -1.1511 -0.0581
 3427SOL     OW11700   0.986   5.868   7.736  0.3791 -0.2673 -0.1598
 3427SOL    HW111701   1.044   5.884   7.811  1.5231 -2.4354 -0.5018
 3427SOL    HW211702   0.900   5.854   7.774  1.0368 -1.8321  0.8733
 3428SOL     OW11703   4.590   7.433   6.813  0.7637  0.3415  0.3667
 3428SOL    HW111704   4.518   7.496   6.808 -0.1081 -0.7096 -0.9690
 3428SOL    HW211705   4.628   7.433   6.725 -0.6583 -2.5387 -0.3472
 3429SOL     OW11706   7.174   4.311   2.204 -0.2007 -0.2743 -0.5538
 3429SOL    HW111707   7.264   4.339   2.185 -0.5715  0.0452 -1.9403
 3429SOL    HW211708   7.125   4.392   2.212 -0.5041 -0.4579 -0.5476
 3430SOL     OW11709   2.324   7.259   4.124 -0.0016  0.2990  0.0369
 3430SOL    HW111710   2.337   7.165   4.134 -0.0408  0.2184 -0.5995
 3430SOL    HW211711   2.273   7.268   4.044  0.0594  0.8683  0.0525
 3431SOL     OW11712   6.359   0.382   6.444  0.2808  0.0426  0.1280
 3431SOL    HW111713   6.416   0.390   6.368 -0.5419 -1.0558 -0.6278
 3431SOL    HW211714   6.270   0.390   6.409 -0.0887  0.2872  1.0853
 3432SOL     OW11715   2.372   1.863   2.495  0.1669  0.8019  0.5048
 3432SOL    HW111716   2.304   1.805   2.531  0.1778 -0.7171 -1.7375
 3432SOL    HW211717   2.331   1.903   2.418  2.1400 -1.2950 -1.8082
 3433SOL     OW11718   2.484   6.248   2.002  0.1031  0.1478 -0.1435
 3433SOL    HW111719   2.553   6.292   2.052  0.4770 -0.5606 -0.0307
 3433SOL    HW211720   2.466   6.307   1.928 -0.0631  0.9376  0.5103
 3434SOL     OW11721   7.356   5.922   5.586  0.5701 -0.5544  0.3936
 3434SOL    HW111722   7.349   6.012   5.620 -0.7673 -0.7364  0.6670
 3434SOL    HW211723   7.268   5.886   5.598  1.0838 -1.8852  0.2252
 3435SOL     OW11724   1.746   7.760   7.922 -0.1370  0.5606  0.1670
 3435SOL    HW111725   1.717   7.852   7.924 -2.5366 -0.0841 -1.1551
 3435SOL    HW211726   1.665   7.710   7.921  1.1379 -1.6126  0.7694
 3436SOL     OW11727   2.568   6.359   7.765  0.0876 -0.3959 -0.4687
 3436SOL    HW111728   2.543   6.271   7.795  0.1161 -0.3028 -0.1718
 3436SOL    HW211729   2.488   6.397   7.731 -0.1867 -0.1013  0.4660
 3437SOL     OW11730   3.505   7.137   0.741  0.0311  0.6220 -0.2729
 3437SOL    HW111731   3.586   7.160   0.787  0.0160  0.1659 -0.0047
 3437SOL    HW211732   3.533   7.078   0.671 -0.3486 -2.2252  1.7849
 3438SOL     OW11733   2.095   0.452   0.647 -0.3783  0.3064 -0.4560
 3438SOL    HW111734   2.154   0.392   0.693 -0.6689  1.1334  1.0504
 3438SOL    HW211735   2.132   0.457   0.559  1.6699  0.5782  0.3472
 3439SOL     OW11736   3.715   1.256   4.762  0.2552  0.0663  0.0760
 3439SOL    HW111737   3.693   1.340   4.803 -1.9972 -0.4785  0.0750
 3439SOL    HW211738   3.710   1.274   4.668 -1.2416 -0.2630  0.0652
 3440SOL     OW11739   7.260   4.332   3.318  0.3018  0.4217 -0.7130
 3440SOL    HW111740   7.173   4.293   3.322  0.5246 -0.1217 -1.0876
 3440SOL    HW211741   7.244   4.425   3.300 -0.1827  0.2162 -1.3669
 3441SOL     OW11742   0.068   3.062   0.841 -0.1714 -0.2271  0.3497
 3441SOL    HW111743   0.058   3.115   0.762 -0.0728 -2.1530 -1.0391
 3441SOL    HW211744   0.121   3.116   0.900  1.2101  0.6324 -1.5698
 3442SOL     OW11745   6.802   2.630   3.969  0.0854 -0.7679  0.0813
 3442SOL    HW111746   6.811   2.600   3.879 -0.4176  3.0150 -1.4197
 3442SOL    HW211747   6.707   2.638   3.983  0.1918  0.0294  0.4107
 3443SOL     OW11748   0.056   5.327   1.160 -0.1642  0.2914  0.8097
 3443SOL    HW111749   0.128   5.327   1.223 -0.3707  0.1541  1.0488
 3443SOL    HW211750   0.051   5.417   1.129  1.1326 -0.0013 -0.3902
 3444SOL     OW11751   4.123   5.040   1.642 -0.0880  0.2402 -0.0270
 3444SOL    HW111752   4.204   5.059   1.689 -1.8174  0.2191  3.3395
 3444SOL    HW211753   4.061   5.106   1.675 -1.6269 -0.1281 -1.9983
 3445SOL     OW11754   3.531   4.110   1.849 -0.5928  0.9779  0.0691
 3445SOL    HW111755   3.561   4.195   1.816 -1.1283  1.8671  1.7556
 3445SOL    HW211756   3.439   4.124   1.869 -0.8864 -0.2522 -0.3303
 3446SOL     OW11757   3.849   1.907   5.303  0.2607 -0.1378  0.2064
 3446SOL    HW111758   3.869   1.848   5.230 -0.5046  1.3255 -1.2296
 3446SOL    HW211759   3.906   1.982   5.289  1.4979 -0.6099  2.2359
 3447SOL     OW11760   3.962   2.554   1.143 -0.7319  0.7493 -0.2022
 3447SOL    HW111761   4.029   2.619   1.162 -0.3838  0.2647  0.2637
 3447SOL    HW211762   3.987   2.478   1.196 -0.5172 -0.1455 -1.5416
 3448SOL     OW11763   0.363   6.790   0.610  0.4966 -0.3180 -0.2423
 3448SOL    HW111764   0.314   6.869   0.591 -1.0016 -1.1530  0.0302
 3448SOL    HW211765   0.365   6.741   0.528 -0.3118 -0.9013  0.0733
 3449SOL     OW11766   4.578   2.554   3.581 -0.8918 -0.1456  0.2922
 3449SOL    HW111767   4.667   2.588   3.575 -1.3920  1.3287  0.8853
 3449SOL    HW211768   4.523   2.623   3.544 -1.8128 -1.0066 -0.0071
 3450SOL     OW11769   6.805   5.292   6.950 -0.4875 -0.1241 -0.3286
 3450SOL    HW111770   6.880   5.317   7.005  0.9341  2.3090 -3.0968
 3450SOL    HW211771   6.731   5.341   6.987  0.4629  1.5488 -0.5359
 3451SOL     OW11772   0.969   3.231   1.830 -0.0159 -0.2130 -0.3912
 3451SOL    HW111773   1.063   3.213   1.820 -0.0392 -1.0956  0.7047
 3451SOL    HW211774   0.926   3.161   1.780 -0.0903  0.1175 -0.7900
 3452SOL     OW11775   6.666   0.488   2.576  0.0596 -0.0009  0.0746
 3452SOL    HW111776   6.741   0.548   2.580  2.6579 -2.7737 -2.1843
 3452SOL    HW211777   6.693   0.412   2.628 -1.9803 -0.4030  0.6400
 3453SOL     OW11778   4.611   4.549   7.980  0.2134  0.3833  0.5818
 3453SOL    HW111779   4.532   4.503   8.008  0.6446 -0.9639 -0.3084
 3453SOL    HW211780   4.681   4.486   7.994  0.8155  0.7297 -0.7425
 3454SOL     OW11781   7.501   1.318   6.762  0.1567 -0.6347 -0.5346
 3454SOL    HW111782   7.574   1.275   6.718  0.1216  0.5031 -1.7781
 3454SOL    HW211783   7.529   1.409   6.770 -1.8322  0.2751 -2.8075
 3455SOL     OW11784   4.614   5.562   0.343 -0.0802  0.3618 -0.0458
 3455SOL    HW111785   4.532   5.550   0.392 -0.6179 -2.8853 -1.4864
 3455SOL    HW211786   4.588   5.604   0.262  0.0162  1.0263  0.2572
 3456SOL     OW11787   7.743   0.439   4.938 -0.2570  0.6103  0.1703
 3456SOL    HW111788   7.821   0.493   4.949  1.1691 -1.4901  1.1195
 3456SOL    HW211789   7.712   0.422   5.027 -1.2059  0.5741 -0.1504
 3457SOL     OW11790   7.842   2.778   2.895  0.0143  0.6265  0.0217
 3457SOL    HW111791   7.909   2.840   2.925  0.1995  0.2443  0.4072
 3457SOL    HW211792   7.869   2.694   2.931 -1.0825  0.5965  0.8407
 3458SOL     OW11793   7.733   1.515   6.390  0.1450  0.1551 -0.0877
 3458SOL    HW111794   7.723   1.551   6.478 -2.7195 -0.5879 -0.0026
 3458SOL    HW211795   7.688   1.577   6.333 -2.0398 -1.5553 -0.3489
 3459SOL     OW11796   0.257   2.855   7.605 -0.6367  0.2219 -0.1924
 3459SOL    HW111797   0.245   2.934   7.657  0.7699  0.1544  0.2808
 3459SOL    HW211798   0.333   2.811   7.644 -0.7888 -0.8649 -1.0483
 3460SOL     OW11799   1.706   7.118   6.437  0.3729 -0.0806  0.3747
 3460SOL    HW111800   1.766   7.179   6.481 -0.2940  0.6326  0.2965
 3460SOL    HW211801   1.764   7.060   6.388  1.0476  0.1024  0.9282
 3461SOL     OW11802   6.162   3.968   1.590  0.1201 -0.2284 -0.5946
 3461SOL    HW111803   6.119   4.053   1.596  1.2515  0.5919 -2.7485
 3461SOL    HW211804   6.103   3.915   1.537  0.4640 -0.0030 -1.2152
 3462SOL     OW11805   5.566   6.098   0.869  0.3762 -0.0372  0.1548
 3462SOL    HW111806   5.541   6.088   0.961  1.2229  0.4992  0.4464
 3462SOL    HW211807   5.613   6.180   0.865  1.6147 -0.7474 -0.4848
 3463SOL     OW11808   5.433   8.017   4.991 -0.0590 -0.2160 -0.1739
 3463SOL    HW111809   5.448   7.948   5.056 -1.3180 -1.9421 -1.6275
 3463SOL    HW211810   5.431   8.098   5.042  1.3045 -1.2291  1.6161
 3464SOL     OW11811   1.619   7.446   3.938 -0.7905 -0.2965 -0.2860
 3464SOL    HW111812   1.668   7.496   3.872 -0.6963 -1.5130 -1.1670
 3464SOL    HW211813   1.554   7.398   3.888 -0.1214 -1.9569  0.3713
 3465SOL     OW11814   0.524   6.033   7.982 -0.1703 -0.0558  0.2616
 3465SOL    HW111815   0.506   6.046   7.889  3.8305 -1.3157 -0.8593
 3465SOL    HW211816   0.514   5.938   7.995  0.0906  0.0051  0.9296
 3466SOL     OW11817   0.659   3.178   4.483 -0.3086  0.2239 -1.1010
 3466SOL    HW111818   0.657   3.252   4.545 -0.8614 -0.3602 -0.4003
 3466SOL    HW211819   0.750   3.147   4.486  0.5011  2.1633 -2.9998
 3467SOL     OW11820   2.250   3.014   6.760  0.3010 -0.1619 -0.2112
 3467SOL    HW111821   2.215   2.998   6.673 -0.6211 -0.4228  0.1890
 3467SOL    HW211822   2.180   3.061   6.806  0.0252 -1.5845  0.9190
 3468SOL     OW11823   6.647   0.788   4.655 -0.3329 -0.2852  0.2551
 3468SOL    HW111824   6.579   0.856   4.656 -0.3987 -0.2921 -1.0416
 3468SOL    HW211825   6.605   0.711   4.692 -0.1751  0.4294  2.0023
 3469SOL     OW11826   1.587   2.278   0.927  0.2007 -0.1833 -0.7959
 3469SOL    HW111827   1.678   2.256   0.948 -0.7535 -2.4716  1.3758
 3469SOL    HW211828   1.542   2.194   0.919 -2.0839  0.8680 -0.0651
 3470SOL     OW11829   0.783   7.868   4.882 -0.2796 -0.9994 -0.5478
 3470SOL    HW111830   0.758   7.914   4.963  0.1423 -1.6558 -0.0330
 3470SOL    HW211831   0.865   7.910   4.856 -0.3212 -0.9104 -0.5377
 3471SOL     OW11832   1.229   3.316   2.533  0.5472  0.1445  0.1925
 3471SOL    HW111833   1.277   3.369   2.597  3.4899 -1.5663 -0.3978
 3471SOL    HW211834   1.219   3.373   2.457  2.1221  0.4435  0.1844
 3472SOL     OW11835   4.095   3.059   2.907  0.6834 -0.1957  0.3719
 3472SOL    HW111836   4.089   3.011   2.824  1.1722 -2.5270  1.6056
 3472SOL    HW211837   4.032   3.016   2.964 -0.6065  2.2122  0.9199
 3473SOL     OW11838   0.751   6.322   7.980 -0.0418  0.2110  0.4047
 3473SOL    HW111839   0.687   6.275   8.034  0.7877 -0.4158  0.8572
 3473SOL    HW211840   0.741   6.284   7.893  1.0068 -1.2172  0.8882
 3474SOL     OW11841   5.638   2.924   6.082 -0.2321  0.0891 -0.3282
 3474SOL    HW111842   5.613   2.877   6.162 -0.9730 -1.4271 -1.4075
 3474SOL    HW211843   5.721   2.967   6.105 -0.4482 -0.2686  1.2585
 3475SOL     OW11844   1.305   8.060   6.368 -0.0405  0.4164 -0.2640
 3475SOL    HW111845   1.346   8.146   6.379 -0.4457  0.4852  0.8724
 3475SOL    HW211846   1.211   8.077   6.377 -0.0457 -0.3298  1.5036
 3476SOL     OW11847   2.952   5.951   0.439 -1.0412 -0.1108 -0.0299
 3476SOL    HW111848   2.857   5.963   0.433 -0.7743  2.1467 -0.6439
 3476SOL    HW211849   2.983   5.960   0.349 -0.2825 -1.7196  0.0353
 3477SOL     OW11850   1.152   4.864   3.464 -0.2084  0.0136 -0.1145
 3477SOL    HW111851   1.158   4.933   3.398 -1.6411  0.7783  0.4929
 3477SOL    HW211852   1.202   4.898   3.538 -0.5245  0.2162  0.0124
 3478SOL     OW11853   5.670   1.405   7.145  0.0879 -0.1653 -0.1972
 3478SOL    HW111854   5.734   1.415   7.075  0.2845 -1.1446 -0.1688
 3478SOL    HW211855   5.702   1.331   7.197 -0.0311  0.5538  0.9550
 3479SOL     OW11856   0.416   3.325   2.568 -0.7138  0.7997 -0.7012
 3479SOL    HW111857   0.447   3.415   2.579 -1.4849  0.9906  0.0293
 3479SOL    HW211858   0.482   3.272   2.613 -1.2763  1.1870  0.6609
 3480SOL     OW11859   4.173   7.221   1.024 -0.2558 -0.3968  0.2430
 3480SOL    HW111860   4.132   7.150   0.975 -1.7481 -0.2875  1.2612
 3480SOL    HW211861   4.259   7.187   1.048 -0.9337 -1.8713  0.6823
 3481SOL     OW11862   2.207   5.223   6.889 -0.5581  0.3207  0.1146
 3481SOL    HW111863   2.152   5.195   6.816  0.1300 -1.5927  0.2859
 3481SOL    HW211864   2.240   5.309   6.863 -1.5665  0.3565 -1.1146
 3482SOL     OW11865   4.694   1.398   5.862  0.2409 -0.1492  0.7756
 3482SOL    HW111866   4.745   1.368   5.937  0.2972 -0.5787  0.5685
 3482SOL    HW211867   4.605   1.366   5.878  0.3993 -0.8505  0.3301
 3483SOL     OW11868   8.018   1.934   6.713 -0.1090 -0.1147 -0.2759
 3483SOL    HW111869   8.035   1.879   6.636  0.0560 -0.1737 -0.1983
 3483SOL    HW211870   8.084   2.003   6.708  1.6264 -1.5691  1.2123
 3484SOL     OW11871   0.717   6.647   0.085 -0.0062  0.1182  0.2936
 3484SOL    HW111872   0.791   6.685   0.037  0.0525 -0.3678 -0.0187
 3484SOL    HW211873   0.757   6.610   0.164  0.0409  0.1066  0.2647
 3485SOL     OW11874   5.944   6.419   7.119 -0.3532  0.0369  0.1746
 3485SOL    HW111875   5.885   6.397   7.047 -0.8855 -1.5657  1.0471
 3485SOL    HW211876   5.978   6.335   7.149  1.2035  0.8062  0.7010
 3486SOL     OW11877   0.957   2.941   5.920  0.2842  0.1424 -0.2109
 3486SOL    HW111878   0.984   2.996   5.993  0.1135  0.0773 -0.0973
 3486SOL    HW211879   1.032   2.883   5.904  0.7124  0.8391 -0.7554
 3487SOL     OW11880   7.882   6.509   3.026 -0.3038  0.7613  0.0948
 3487SOL    HW111881   7.832   6.450   3.084 -0.4745  1.7891  1.0281
 3487SOL    HW211882   7.869   6.596   3.064 -0.4131  1.4716 -1.5132
 3488SOL     OW11883   5.020   6.148   0.808  0.0230  0.4525  0.9372
 3488SOL    HW111884   4.951   6.167   0.872 -1.8270 -0.0916 -0.7979
 3488SOL    HW211885   5.055   6.233   0.784 -2.3151  1.0940 -0.5055
 3489SOL     OW11886   7.812   5.744   7.743  0.4602 -0.1813  0.0401
 3489SOL    HW111887   7.876   5.700   7.799 -0.4759 -1.0229  0.4786
 3489SOL    HW211888   7.854   5.827   7.719  1.2603 -0.2139  1.2372
 3490SOL     OW11889   4.221   0.159   7.190 -0.5734  0.4355  0.1187
 3490SOL    HW111890   4.302   0.166   7.140  0.0745 -1.6826  0.7800
 3490SOL    HW211891   4.169   0.095   7.142 -0.2489 -1.0649  1.6748
 3491SOL     OW11892   0.332   3.669   7.358  0.1655 -0.0824 -0.0855
 3491SOL    HW111893   0.361   3.578   7.364  1.5275  0.4191  1.8564
 3491SOL    HW211894   0.296   3.688   7.445 -1.4813  0.8432 -0.9085
 3492SOL     OW11895   5.335   3.165   1.363  0.4889  0.3945  0.7670
 3492SOL    HW111896   5.369   3.077   1.348  0.4531  0.4797  0.1769
 3492SOL    HW211897   5.279   3.156   1.440  3.2936  0.6067  2.9924
 3493SOL     OW11898   0.263   6.955   3.653 -0.4787  0.0964  0.2787
 3493SOL    HW111899   0.280   6.950   3.747 -0.8231  1.2734  0.4197
 3493SOL    HW211900   0.169   6.970   3.647 -0.2810  1.2833 -0.1871
 3494SOL     OW11901   7.034   6.996   1.275 -0.1211  0.2078  0.0364
 3494SOL    HW111902   7.088   6.963   1.204  3.3733  0.5921  2.2848
 3494SOL    HW211903   6.984   6.920   1.305  0.1214 -0.4989 -1.2761
 3495SOL     OW11904   6.949   5.509   2.581  0.1231 -0.3157  0.6347
 3495SOL    HW111905   7.004   5.588   2.578 -1.1809  0.7029  2.1914
 3495SOL    HW211906   6.977   5.464   2.660 -1.0953  0.1025  1.3263
 3496SOL     OW11907   7.535   3.170   1.374  0.3814  0.8063  0.2980
 3496SOL    HW111908   7.540   3.137   1.284  0.8515  0.4303  0.4560
 3496SOL    HW211909   7.468   3.115   1.416  1.8068 -0.5994  0.8147
 3497SOL     OW11910   5.753   1.465   6.480 -0.1201  0.1040 -0.1038
 3497SOL    HW111911   5.785   1.552   6.456 -0.9866  0.3637 -0.3268
 3497SOL    HW211912   5.741   1.469   6.575  0.4641  0.0138 -0.0220
 3498SOL     OW11913   4.437   4.725   0.142 -0.0218  0.4518 -0.6336
 3498SOL    HW111914   4.506   4.659   0.148  0.1123  0.6359 -0.0770
 3498SOL    HW211915   4.385   4.698   0.067  0.1510 -0.1738 -0.5367
 3499SOL     OW11916   1.601   5.171   2.657  0.2078 -0.2572  0.3121
 3499SOL    HW111917   1.554   5.174   2.574 -1.0308  1.0392  1.0210
 3499SOL    HW211918   1.693   5.177   2.633 -0.0666 -0.8720 -1.0032
 3500SOL     OW11919   0.105   0.112   7.900 -0.0726 -0.3049 -0.4897
 3500SOL    HW111920   0.031   0.106   7.840  0.7620  0.0889 -1.5962
 3500SOL    HW211921   0.099   0.201   7.936 -0.2234 -0.3284 -0.4546
 3501SOL     OW11922   3.123   2.955   2.700  0.1445 -0.0195  0.3436
 3501SOL    HW111923   3.081   2.910   2.626 -0.1098  2.0425 -0.8244
 3501SOL    HW211924   3.103   2.900   2.775 -0.8821 -1.4058 -0.8695
 3502SOL     OW11925   1.204   2.328   6.987  0.1646 -0.3918 -0.0061
 3502SOL    HW111926   1.112   2.322   6.962  0.2650  0.7502 -0.7419
 3502SOL    HW211927   1.209   2.286   7.073 -1.3529  0.9812  0.8096
 3503SOL     OW11928   6.602   3.568   1.208 -0.1013  0.3893 -0.2245
 3503SOL    HW111929   6.642   3.628   1.271 -1.0572  0.7411  0.0584
 3503SOL    HW211930   6.628   3.481   1.238  0.0827  0.5869  0.2046
 3504SOL     OW11931   6.701   4.138   5.942  0.3437 -0.2283 -0.1703
 3504SOL    HW111932   6.609   4.161   5.931  0.5717  1.9277  1.6430
 3504SOL    HW211933   6.748   4.215   5.908  1.3884 -0.4135  0.8123
 3505SOL     OW11934   6.530   0.633   7.821  0.3187 -0.1110 -0.7110
 3505SOL    HW111935   6.568   0.577   7.752  0.3566  0.3954 -1.1121
 3505SOL    HW211936   6.562   0.595   7.903  1.6122  0.2224 -1.0365
 3506SOL     OW11937   5.112   5.917   5.352  0.0372 -0.2123 -0.1778
 3506SOL    HW111938   5.109   5.955   5.440 -1.5188 -0.6903  0.0098
 3506SOL    HW211939   5.021   5.891   5.335  0.0669  0.9091 -2.3782
 3507SOL     OW11940   5.868   7.579   2.570  0.0570 -0.4030 -0.0054
 3507SOL    HW111941   5.809   7.508   2.547  0.0548 -0.1470 -0.8451
 3507SOL    HW211942   5.816   7.659   2.554  1.2285 -0.0850 -2.7826
 3508SOL     OW11943   4.737   0.672   0.745  0.7845 -0.4740 -0.0130
 3508SOL    HW111944   4.719   0.594   0.691  1.4543  0.2721 -1.3778
 3508SOL    HW211945   4.712   0.746   0.689  1.1240  0.3171  0.8661
 3509SOL     OW11946   4.576   6.219   1.162 -0.6042 -0.4414 -0.1651
 3509SOL    HW111947   4.497   6.177   1.195 -0.9069  0.5510  0.4345
 3509SOL    HW211948   4.575   6.306   1.203  0.2210 -0.0165 -1.0196
 3510SOL     OW11949   3.161   1.048   4.877 -0.1876  0.5801  0.2202
 3510SOL    HW111950   3.196   0.976   4.930 -0.2948  0.7228  0.4855
 3510SOL    HW211951   3.234   1.072   4.819 -0.6301 -0.7787 -0.9824
 3511SOL     OW11952   1.001   0.899   6.828  0.1733 -0.2347 -0.3597
 3511SOL    HW111953   0.961   0.835   6.887  1.2961  0.0941  0.8251
 3511SOL    HW211954   0.928   0.933   6.776 -0.6871 -1.3189  0.0900
 3512SOL     OW11955   2.914   4.179   0.956  0.0431  0.3752  0.4214
 3512SOL    HW111956   2.843   4.238   0.982  1.0827  1.5167  0.7864
 3512SOL    HW211957   2.953   4.220   0.879 -1.0968 -1.4329 -1.1968
 3513SOL     OW11958   4.853   5.928   7.235  0.5584  0.5702 -0.4604
 3513SOL    HW111959   4.786   5.894   7.294  1.3921  0.4160  0.4366
 3513SOL    HW211960   4.934   5.889   7.267  0.9806  0.0768 -2.0400
 3514SOL     OW11961   5.989   3.799   1.462  0.4361  0.4992  0.0131
 3514SOL    HW111962   5.908   3.792   1.411  1.7409 -0.8730 -2.0516
 3514SOL    HW211963   5.968   3.759   1.546 -1.0492  0.1912 -0.4761
 3515SOL     OW11964   2.105   2.192   3.963 -0.5274  0.1847  0.0708
 3515SOL    HW111965   2.044   2.238   4.020  0.9328  1.6819  0.5196
 3515SOL    HW211966   2.061   2.188   3.878 -1.6166  0.3679  0.6165
 3516SOL     OW11967   4.725   0.632   1.977 -0.9043 -0.3407 -0.0019
 3516SOL    HW111968   4.679   0.548   1.972 -0.4743 -0.6053  0.3910
 3516SOL    HW211969   4.815   0.611   1.950 -0.2965 -0.4170  1.9259
 3517SOL     OW11970   2.618   4.294   4.052  0.0458  0.1195  0.2655
 3517SOL    HW111971   2.690   4.357   4.050  0.6337 -0.4973 -3.1401
 3517SOL    HW211972   2.642   4.226   3.989 -3.2400 -0.4144 -0.6279
 3518SOL     OW11973   3.403   2.099   3.192 -0.4047 -0.1152 -0.1032
 3518SOL    HW111974   3.308   2.114   3.187 -0.1711  1.5142 -0.1813
 3518SOL    HW211975   3.435   2.124   3.105 -0.0206 -1.8272 -0.4897
 3519SOL     OW11976   0.543   1.498   2.887  0.1211  0.5372  0.0066
 3519SOL    HW111977   0.501   1.571   2.842 -0.1131 -0.3747 -1.3057
 3519SOL    HW211978   0.539   1.426   2.825  2.5519  0.0740  0.2757
 3520SOL     OW11979   5.982   5.932   6.533 -0.1241 -0.0969 -0.4620
 3520SOL    HW111980   6.070   5.899   6.546 -0.5304 -1.2235 -0.5124
 3520SOL    HW211981   5.960   5.907   6.443 -1.1030 -1.3097  0.0853
 3521SOL     OW11982   4.841   0.619   6.938  0.3867 -0.1184  0.4027
 3521SOL    HW111983   4.879   0.677   6.872 -2.1040  0.2500 -0.8434
 3521SOL    HW211984   4.890   0.537   6.929  4.2687  1.7303  2.4973
 3522SOL     OW11985   3.868   0.916   1.275 -0.2592 -0.0730 -0.1216
 3522SOL    HW111986   3.906   0.828   1.280 -0.1151  0.0011  0.1426
 3522SOL    HW211987   3.776   0.904   1.299 -0.3894 -0.2437 -0.6914
 3523SOL     OW11988   6.909   7.964   3.696  0.4034 -0.6254  0.0357
 3523SOL    HW111989   6.932   7.951   3.604 -0.5445  0.1829 -0.3389
 3523SOL    HW211990   6.816   7.987   3.694  0.4307 -0.3665  1.1815
 3524SOL     OW11991   5.993   3.693   5.390 -0.1072  0.3318 -0.8218
 3524SOL    HW111992   5.948   3.612   5.366  1.2146  0.1039 -2.7657
 3524SOL    HW211993   5.943   3.727   5.464 -1.6039 -1.4590 -0.9316
 3525SOL     OW11994   7.083   6.783   4.422  0.1392 -0.0298  0.3985
 3525SOL    HW111995   7.152   6.836   4.381 -0.1164  0.2868  0.3717
 3525SOL    HW211996   7.130   6.716   4.471  0.4556 -0.5978 -0.6464
 3526SOL     OW11997   5.251   3.525   0.573  0.7475 -0.5095 -0.7911
 3526SOL    HW111998   5.281   3.509   0.663  0.7833 -2.9110 -1.1469
 3526SOL    HW211999   5.310   3.592   0.539  0.2039  1.0712  1.2030
 3527SOL     OW12000   5.953   6.328   4.303  0.0071  0.7339  0.0122
 3527SOL    HW112001   5.927   6.372   4.383 -0.9028  0.5468 -0.1676
 3527SOL    HW212002   5.927   6.237   4.315  0.2002  0.6257 -0.3457
 3528SOL     OW12003   6.699   4.860   5.747  0.1156  0.0199  0.1057
 3528SOL    HW112004   6.635   4.819   5.805  1.1156 -1.2403  0.3551
 3528SOL    HW212005   6.773   4.881   5.803  0.6138 -0.1166 -0.4934
 3529SOL     OW12006   6.505   0.113   6.980 -0.4332  0.3655  0.8158
 3529SOL    HW112007   6.575   0.068   6.932 -1.3748 -1.0579  0.6966
 3529SOL    HW212008   6.482   0.188   6.924  0.5639  0.4954  0.5619
 3530SOL     OW12009   5.311   2.941   0.293  0.0917  0.5179  0.0551
 3530SOL    HW112010   5.231   2.887   0.291  0.8857 -0.6789 -1.3658
 3530SOL    HW212011   5.366   2.899   0.358  0.5180 -0.1270 -0.7082
 3531SOL     OW12012   6.005   2.678   7.499  0.3746 -0.4010  0.0837
 3531SOL    HW112013   6.054   2.656   7.579  2.5122 -1.0655 -1.3134
 3531SOL    HW212014   5.930   2.618   7.499  0.4511 -0.5272  1.4663
 3532SOL     OW12015   5.808   4.678   4.355  0.0528 -0.1481  0.1850
 3532SOL    HW112016   5.860   4.739   4.304 -0.0865 -1.2995 -1.3909
 3532SOL    HW212017   5.801   4.600   4.300 -1.1604 -0.9752  1.4437
 3533SOL     OW12018   5.351   0.338   3.963 -0.2214 -0.7904 -0.0054
 3533SOL    HW112019   5.418   0.273   3.943  1.0336  0.5794 -0.3877
 3533SOL    HW212020   5.372   0.369   4.050  0.8801  1.0389 -0.8586
 3534SOL     OW12021   3.578   1.845   2.987  0.3425  0.4788  0.0593
 3534SOL    HW112022   3.504   1.852   2.926  0.6545  0.0343 -0.3679
 3534SOL    HW212023   3.617   1.760   2.969  0.1829  0.1505  1.1715
 3535SOL     OW12024   0.558   0.636   4.434 -0.3928  0.2869 -0.2778
 3535SOL    HW112025   0.467   0.666   4.443  0.4850  2.8949  0.9420
 3535SOL    HW212026   0.608   0.717   4.423  1.8893 -1.0327 -0.0789
 3536SOL     OW12027   2.265   2.705   7.813 -0.2229 -0.4772  0.5030
 3536SOL    HW112028   2.267   2.668   7.901 -0.8401 -1.2504  0.2104
 3536SOL    HW212029   2.345   2.672   7.772  0.2297  0.1475  0.8652
 3537SOL     OW12030   7.564   5.244   0.176 -0.0643  0.3815  0.8825
 3537SOL    HW112031   7.574   5.293   0.095  1.1052  0.0620  0.8174
 3537SOL    HW212032   7.470   5.225   0.181 -0.2956  1.2637  0.1266
 3538SOL     OW12033   5.950   3.938   4.236  0.0525  0.5995  0.3453
 3538SOL    HW112034   5.896   3.917   4.312  1.2167  0.9322  1.3150
 3538SOL    HW212035   6.028   3.884   4.247  0.3098  0.7745 -0.5326
 3539SOL     OW12036   3.421   2.747   7.431  0.8384  0.4542 -0.0519
 3539SOL    HW112037   3.353   2.813   7.419  0.2995  0.2669  1.6965
 3539SOL    HW212038   3.490   2.773   7.370 -0.5795  0.9065 -1.5366
 3540SOL     OW12039   4.313   3.162   4.401 -0.0853  0.1350  0.2763
 3540SOL    HW112040   4.361   3.094   4.353 -0.6807  0.4156 -0.7428
 3540SOL    HW212041   4.233   3.117   4.430 -0.1761  0.2216  0.1615
 3541SOL     OW12042   1.743   0.279   1.885  0.4592  0.0842 -0.1246
 3541SOL    HW112043   1.686   0.320   1.819  1.4246  3.0961  0.7526
 3541SOL    HW212044   1.705   0.306   1.969  1.0423 -1.0763  0.5324
 3542SOL     OW12045   4.039   0.317   6.647  0.8553  0.1727  0.1951
 3542SOL    HW112046   4.124   0.338   6.609  1.6307  0.1938  1.8554
 3542SOL    HW212047   4.057   0.302   6.740 -0.6297 -1.9013  0.2211
 3543SOL     OW12048   2.098   3.140   2.578 -0.4648  0.2459  0.7306
 3543SOL    HW112049   2.102   3.055   2.623 -0.8031  0.3582  0.9707
 3543SOL    HW212050   2.086   3.204   2.647 -1.1879  0.4016  0.4659
 3544SOL     OW12051   1.234   4.700   7.062  0.2417  0.3838  0.4578
 3544SOL    HW112052   1.216   4.667   6.974 -0.2533  0.6408  0.4633
 3544SOL    HW212053   1.275   4.785   7.048  1.5712 -0.2411  0.4422
 3545SOL     OW12054   6.124   4.417   1.617  0.6616 -0.2117  0.5020
 3545SOL    HW112055   6.070   4.495   1.625  0.5161 -0.3082  0.4729
 3545SOL    HW212056   6.093   4.374   1.537  0.7904 -0.2598  0.4775
 3546SOL     OW12057   5.545   2.410   6.512 -0.9217 -0.7050  0.1322
 3546SOL    HW112058   5.501   2.485   6.551 -0.1514 -0.2229  0.0943
 3546SOL    HW212059   5.499   2.396   6.429 -2.8228 -1.9851  1.3128
 3547SOL     OW12060   7.523   7.264   1.671  0.4647  0.4169  0.0159
 3547SOL    HW112061   7.597   7.215   1.707 -0.4382 -0.6956  0.3816
 3547SOL    HW212062   7.478   7.203   1.613  0.6355  1.5252 -1.3568
 3548SOL     OW12063   3.244   3.020   6.151  0.3230  0.7319  0.0334
 3548SOL    HW112064   3.174   2.968   6.191 -0.5452  2.1344  0.4220
 3548SOL    HW212065   3.301   3.042   6.224  0.3421  0.8498 -0.0178
 3549SOL     OW12066   7.767   6.812   1.382 -0.2144  0.4927  0.5301
 3549SOL    HW112067   7.773   6.837   1.289  1.1670  1.0747  0.7492
 3549SOL    HW212068   7.836   6.747   1.394 -3.2060 -3.1209  0.1758
 3550SOL     OW12069   2.385   7.643   0.542 -0.0402  0.0577 -0.1744
 3550SOL    HW112070   2.475   7.623   0.566  0.1993  1.0793 -0.1755
 3550SOL    HW212071   2.332   7.583   0.594  0.5719  0.6710  1.2076
 3551SOL     OW12072   7.343   4.214   4.547 -0.0271 -0.1960 -0.1939
 3551SOL    HW112073   7.399   4.246   4.476 -0.5854 -2.5803 -1.8128
 3551SOL    HW212074   7.254   4.222   4.512 -0.2604 -2.1417 -0.1192
 3552SOL     OW12075   4.780   5.163   7.506  0.0764 -0.3362  0.0653
 3552SOL    HW112076   4.802   5.147   7.598 -0.8071 -0.1086  0.3339
 3552SOL    HW212077   4.782   5.258   7.498 -2.5707 -0.1325  0.6270
 3553SOL     OW12078   1.339   6.024   5.242 -0.0337 -0.0405 -0.0073
 3553SOL    HW112079   1.353   5.994   5.332  1.0734  1.0782  0.2275
 3553SOL    HW212080   1.426   6.023   5.203 -0.4167  0.0535 -0.8867
 3554SOL     OW12081   6.509   4.539   5.192  0.2534 -0.6292 -0.4902
 3554SOL    HW112082   6.415   4.531   5.175  0.3502 -0.6793 -1.0206
 3554SOL    HW212083   6.545   4.570   5.109  0.6358 -0.0996 -0.1280
 3555SOL     OW12084   7.275   3.260   1.759  0.3875 -0.3999  0.8537
 3555SOL    HW112085   7.195   3.311   1.747  1.2262  1.3808  2.3392
 3555SOL    HW212086   7.253   3.196   1.827  0.2468  0.1258  1.3030
 3556SOL     OW12087   3.443   0.096   6.427 -0.1636  0.3074  0.1706
 3556SOL    HW112088   3.461   0.185   6.395 -0.8076  0.5498  0.4857
 3556SOL    HW212089   3.497   0.087   6.505  1.4192 -0.2861 -0.9258
 3557SOL     OW12090   0.736   0.013   3.401 -0.0928  0.1366 -1.0698
 3557SOL    HW112091   0.788  -0.065   3.421 -0.7129 -0.1242 -0.4428
 3557SOL    HW212092   0.722   0.008   3.306 -0.9651 -1.0541 -0.8952
 3558SOL     OW12093   3.881   5.814   0.692 -0.0218 -0.2200 -0.0578
 3558SOL    HW112094   3.901   5.721   0.701 -0.5789 -0.3301  0.0769
 3558SOL    HW212095   3.951   5.849   0.637  1.1994 -0.3546  1.3627
 3559SOL     OW12096   1.051   0.723   3.945  0.0007  0.5503 -0.0898
 3559SOL    HW112097   1.091   0.678   4.019  1.4769 -0.4012 -1.3732
 3559SOL    HW212098   0.971   0.673   3.927  0.5879 -0.3657 -0.2525
 3560SOL     OW12099   5.121   4.166   2.745  0.4108  0.0145 -0.3489
 3560SOL    HW112100   5.131   4.071   2.751  3.0179  0.3105  1.6525
 3560SOL    HW212101   5.107   4.182   2.652 -3.9656 -2.5082 -0.4099
 3561SOL     OW12102   7.174   2.125   3.093 -0.3593  0.4306 -0.4302
 3561SOL    HW112103   7.231   2.048   3.082 -1.4833 -0.3580 -0.9612
 3561SOL    HW212104   7.087   2.088   3.107 -1.0185  1.6056 -1.2432
 3562SOL     OW12105   6.093   2.672   5.494 -0.3206 -0.2444 -0.2843
 3562SOL    HW112106   6.096   2.617   5.572 -0.1891  0.0181 -0.1073
 3562SOL    HW212107   6.051   2.753   5.522  1.0222  0.4182 -0.1423
 3563SOL     OW12108   6.614   4.015   0.085 -0.0280  0.0119  0.3836
 3563SOL    HW112109   6.591   3.926   0.057 -0.8302 -0.4656  2.3882
 3563SOL    HW212110   6.654   4.003   0.171  0.3353  1.5560  0.4436
 3564SOL     OW12111   0.615   5.783   6.765  0.2387 -0.2388  0.3345
 3564SOL    HW112112   0.604   5.877   6.750  1.5993  0.1501  1.5683
 3564SOL    HW212113   0.614   5.773   6.860  2.0282 -1.1625  0.3120
 3565SOL     OW12114   1.805   3.809   5.482 -0.0691  0.1387  0.7370
 3565SOL    HW112115   1.713   3.836   5.492 -0.7869 -1.7437 -0.2772
 3565SOL    HW212116   1.815   3.735   5.541  1.2821  1.2842  2.0006
 3566SOL     OW12117   2.592   7.447   0.017  0.3517 -0.1100  0.2142
 3566SOL    HW112118   2.610   7.354   0.010  0.3572 -0.5034  3.6927
 3566SOL    HW212119   2.677   7.488   0.034  0.2330  0.4040 -0.3964
 3567SOL     OW12120   7.106   0.817   7.121 -0.3387  0.3724  0.2514
 3567SOL    HW112121   7.134   0.768   7.198  0.5056  1.3915  0.6166
 3567SOL    HW212122   7.146   0.770   7.047  0.0324  0.2066  0.5552
 3568SOL     OW12123   3.018   5.324   1.741  0.2561  0.4949  0.3090
 3568SOL    HW112124   3.020   5.292   1.651  1.0335  1.8720 -0.2088
 3568SOL    HW212125   2.933   5.366   1.750 -0.2938 -0.6477  0.6155
 3569SOL     OW12126   0.436   3.439   0.572 -0.3300 -0.0593 -0.1014
 3569SOL    HW112127   0.443   3.413   0.664  0.6516  0.8816  0.1189
 3569SOL    HW212128   0.485   3.371   0.525  0.8360  0.4762  0.2940
 3570SOL     OW12129   5.809   1.623   3.523  0.0430  0.2483 -0.1704
 3570SOL    HW112130   5.715   1.607   3.534 -0.0081  1.7687  2.2464
 3570SOL    HW212131   5.813   1.698   3.465 -0.1804 -0.2359 -0.8306
 3571SOL     OW12132   7.229   5.079   3.413  0.3986  0.1695 -0.3007
 3571SOL    HW112133   7.166   5.148   3.431  0.8466  0.3926  0.4460
 3571SOL    HW212134   7.282   5.072   3.493  1.2771 -0.0512 -0.8826
 3572SOL     OW12135   3.522   6.327   6.429 -0.0044 -0.0158  0.1575
 3572SOL    HW112136   3.459   6.255   6.437  0.5232 -0.3863  1.2534
 3572SOL    HW212137   3.575   6.305   6.352 -0.6962 -0.1060 -0.2997
 3573SOL     OW12138   1.975   1.333   3.293  0.5000  0.2010 -0.6206
 3573SOL    HW112139   2.024   1.309   3.214 -0.3736  0.1491 -1.1624
 3573SOL    HW212140   1.917   1.404   3.264  0.4741  0.4670  0.0801
 3574SOL     OW12141   5.826   2.461   7.630 -0.0125  0.3651 -0.2667
 3574SOL    HW112142   5.768   2.462   7.705  1.4189  1.0739  0.8718
 3574SOL    HW212143   5.894   2.397   7.653 -0.6604 -0.9965 -1.8784
 3575SOL     OW12144   7.045   3.551   1.369  0.2016  0.1561 -0.4006
 3575SOL    HW112145   7.089   3.466   1.375  0.9717  0.5045 -0.8358
 3575SOL    HW212146   6.989   3.556   1.446 -1.2739 -1.5273 -1.3096
 3576SOL     OW12147   3.297   7.238   4.737  0.3595  0.2197  0.5636
 3576SOL    HW112148   3.244   7.313   4.711 -0.1249 -0.3945 -0.2566
 3576SOL    HW212149   3.372   7.241   4.678  0.3036  0.0136  0.4829
 3577SOL     OW12150   5.643   5.847   6.862 -0.3339 -0.0927  0.2018
 3577SOL    HW112151   5.686   5.907   6.802 -0.6900 -0.3857 -0.3628
 3577SOL    HW212152   5.635   5.766   6.812  0.8970 -0.8858  1.2382
 3578SOL     OW12153   2.524   6.972   1.987 -0.5356  0.2264  0.0344
 3578SOL    HW112154   2.487   6.939   1.905  1.6676  0.4254 -1.1082
 3578SOL    HW212155   2.498   7.064   1.989 -1.2613  0.0280 -0.0420
 3579SOL     OW12156   4.393   5.958   1.907 -0.0405  0.2763  0.0463
 3579SOL    HW112157   4.450   6.025   1.869 -0.9298  0.2821 -1.3387
 3579SOL    HW212158   4.449   5.912   1.970  0.7816  1.8463  0.5168
 3580SOL     OW12159   3.690   3.118   1.123 -0.1629  0.1625  0.6027
 3580SOL    HW112160   3.753   3.185   1.094 -1.2051  0.6859 -0.5457
 3580SOL    HW212161   3.730   3.080   1.200  1.4158  0.7144  0.1020
 3581SOL     OW12162   5.973   3.131   7.098 -0.1546  0.3735  0.0968
 3581SOL    HW112163   5.951   3.039   7.111 -1.0134  0.3147 -1.4860
 3581SOL    HW212164   5.905   3.178   7.147  0.1592  0.1882  0.7282
 3582SOL     OW12165   7.192   3.321   7.861  0.1486 -0.2129  0.4219
 3582SOL    HW112166   7.231   3.384   7.921 -0.1425  0.0053  0.3826
 3582SOL    HW212167   7.257   3.312   7.791  0.4155 -0.3452  0.6842
 3583SOL     OW12168   5.760   5.490   7.725  0.3776 -0.1328  0.2035
 3583SOL    HW112169   5.794   5.571   7.687 -0.3690 -0.4887 -1.2845
 3583SOL    HW212170   5.704   5.453   7.657 -0.2747 -1.2836  1.3232
 3584SOL     OW12171   0.093   3.057   4.030  0.2641 -0.6462 -0.4204
 3584SOL    HW112172   0.059   3.091   4.113  2.1968  1.1036 -0.2755
 3584SOL    HW212173   0.024   3.077   3.966 -0.3552 -0.1223  0.3901
 3585SOL     OW12174   5.895   6.102   5.775 -0.0180 -0.3803  0.4743
 3585SOL    HW112175   5.980   6.091   5.818 -0.5255 -0.8236  1.3927
 3585SOL    HW212176   5.912   6.079   5.684  1.0167  0.2695  0.4817
 3586SOL     OW12177   6.165   4.992   7.117  0.3539 -0.1687  0.0377
 3586SOL    HW112178   6.124   5.066   7.162 -0.5527  0.0283 -1.0547
 3586SOL    HW212179   6.119   4.986   7.033  0.5110 -1.8837  0.0317
 3587SOL     OW12180   1.619   5.630   0.503 -0.1536  0.1825  0.2361
 3587SOL    HW112181   1.676   5.615   0.427 -0.6499  1.0650 -0.3231
 3587SOL    HW212182   1.539   5.582   0.482 -0.5324  0.9562 -0.0928
 3588SOL     OW12183   5.378   6.875   1.858 -0.1209 -0.0714  0.3440
 3588SOL    HW112184   5.295   6.872   1.906 -0.3666 -1.2574 -0.1289
 3588SOL    HW212185   5.352   6.884   1.766  0.2598 -0.8606  0.1556
 3589SOL     OW12186   2.957   4.493   0.931 -0.9094 -0.8051 -0.2855
 3589SOL    HW112187   2.956   4.564   0.866 -1.1064  0.2903  0.8760
 3589SOL    HW212188   2.999   4.420   0.886  0.8702  0.5800 -0.9881
 3590SOL     OW12189   3.062   7.150   3.128  0.0055  0.2566 -0.2221
 3590SOL    HW112190   3.038   7.232   3.085  1.8614  1.8259  1.4949
 3590SOL    HW212191   2.992   7.134   3.190 -0.1297  0.8235 -0.2227
 3591SOL     OW12192   7.891   7.238   0.711  0.1371 -0.0530  0.2777
 3591SOL    HW112193   7.968   7.275   0.754  0.3923  0.9925 -1.0086
 3591SOL    HW212194   7.920   7.222   0.621 -1.6120  2.1044 -0.7565
 3592SOL     OW12195   3.550   6.309   2.746  0.1244  0.3196 -0.1551
 3592SOL    HW112196   3.631   6.351   2.776  0.4619  0.0897 -0.7115
 3592SOL    HW212197   3.507   6.376   2.692 -0.1701  0.5178  0.3195
 3593SOL     OW12198   7.175   0.554   2.566 -0.7340 -0.1274 -0.0063
 3593SOL    HW112199   7.150   0.631   2.514 -2.0202 -1.7953 -2.0198
 3593SOL    HW212200   7.270   0.548   2.556 -0.8919 -0.1328 -1.8919
 3594SOL     OW12201   3.178   2.417   6.691  0.5107  0.1564 -0.5167
 3594SOL    HW112202   3.119   2.355   6.649  0.4711 -0.0123 -0.2149
 3594SOL    HW212203   3.179   2.493   6.632 -0.9084  0.6391  0.0254
 3595SOL     OW12204   0.787   6.184   2.486  0.3409 -0.3414 -0.2370
 3595SOL    HW112205   0.819   6.239   2.414 -0.3644 -1.2152 -1.2486
 3595SOL    HW212206   0.829   6.099   2.472 -0.5178 -0.7870 -0.1589
 3596SOL     OW12207   3.702   0.756   3.845 -0.6372  0.0754 -0.5564
 3596SOL    HW112208   3.682   0.662   3.842  0.0348 -0.2033  2.0464
 3596SOL    HW212209   3.748   0.772   3.762 -1.2886 -1.7271 -1.3401
 3597SOL     OW12210   0.180   3.776   2.877 -0.1756  0.0033 -0.5533
 3597SOL    HW112211   0.181   3.793   2.971  1.0056  3.1400 -1.0166
 3597SOL    HW212212   0.270   3.753   2.855 -0.5568 -1.2848 -0.8978
 3598SOL     OW12213   0.051   0.465   1.702  0.3563  0.0697 -0.1566
 3598SOL    HW112214  -0.020   0.499   1.648 -0.0326 -0.2859  0.1245
 3598SOL    HW212215   0.007   0.419   1.774  0.8628  0.7892  0.6354
 3599SOL     OW12216   0.998   2.781   6.811  0.3796 -0.2096 -0.2494
 3599SOL    HW112217   0.942   2.812   6.883 -1.6452 -1.7703 -1.0540
 3599SOL    HW212218   1.069   2.734   6.855  0.5706  0.9778  0.7751
 3600SOL     OW12219   7.795   4.956   5.823  0.2052  0.3460 -0.9140
 3600SOL    HW112220   7.840   5.035   5.853 -0.3018  0.6418 -0.9092
 3600SOL    HW212221   7.722   4.946   5.884 -0.9536  1.0632 -2.1317
 3601SOL     OW12222   5.637   0.510   3.464 -0.2012  0.1105  0.2079
 3601SOL    HW112223   5.555   0.463   3.481 -0.4838  0.4798 -0.1188
 3601SOL    HW212224   5.632   0.536   3.372 -0.1242  0.9041  0.4131
 3602SOL     OW12225   6.000   4.188   1.637  0.0939 -0.0998 -0.1442
 3602SOL    HW112226   5.907   4.209   1.636  0.1917  0.3723 -1.1533
 3602SOL    HW212227   6.043   4.267   1.672  0.0849 -0.4938  0.7723
 3603SOL     OW12228   1.652   1.491   7.848  0.2452 -0.0009 -0.7377
 3603SOL    HW112229   1.633   1.414   7.902 -0.0970  1.1753  0.9062
 3603SOL    HW212230   1.748   1.492   7.841  0.5768  1.2341  2.2067
 3604SOL     OW12231   3.299   0.958   3.549 -0.6242 -0.0432 -0.3777
 3604SOL    HW112232   3.377   0.920   3.509 -0.3093  0.0898  0.1055
 3604SOL    HW212233   3.246   0.883   3.575  0.0354 -0.1697  0.6579
 3605SOL     OW12234   2.811   6.515   4.054 -0.2588  0.3171 -0.0903
 3605SOL    HW112235   2.779   6.601   4.026 -0.8685 -0.1688 -0.9335
 3605SOL    HW212236   2.741   6.480   4.109  0.3286  0.6699  0.9227
 3606SOL     OW12237   2.407   5.020   2.187  0.3892 -0.0269  0.7506
 3606SOL    HW112238   2.348   5.005   2.114 -1.3948  0.4980  2.0102
 3606SOL    HW212239   2.448   4.935   2.203 -0.6209 -0.6091  0.3257
 3607SOL     OW12240   3.033   3.161   6.696  0.1615 -0.2202  0.1980
 3607SOL    HW112241   2.984   3.101   6.753  0.5532  0.3287  1.1350
 3607SOL    HW212242   3.097   3.202   6.754  0.2374  0.7317 -0.5339
 3608SOL     OW12243   7.183   7.478   5.135  0.3970  0.0515 -0.1521
 3608SOL    HW112244   7.140   7.394   5.149 -0.2403  0.1079 -1.5564
 3608SOL    HW212245   7.182   7.521   5.220 -0.8234 -0.6538  0.2100
 3609SOL     OW12246   7.456   0.303   5.371  0.2389  0.0543  0.0064
 3609SOL    HW112247   7.518   0.361   5.414 -0.3558  0.9187 -0.2828
 3609SOL    HW212248   7.384   0.293   5.433  0.8141 -1.2646  0.5071
 3610SOL     OW12249   3.592   7.257   7.423  0.2716 -0.3571  0.4497
 3610SOL    HW112250   3.631   7.180   7.381 -0.7114  0.0387 -1.2992
 3610SOL    HW212251   3.563   7.312   7.350 -1.0332  0.6491  1.6679
 3611SOL     OW12252   5.948   7.606   1.704  0.6571 -0.1778 -0.3485
 3611SOL    HW112253   5.868   7.607   1.757  1.0331  0.7119  0.2110
 3611SOL    HW212254   5.964   7.513   1.688  0.1560 -0.4302  0.5208
 3612SOL     OW12255   0.947   2.309   7.757 -0.3765 -0.2971  0.4627
 3612SOL    HW112256   0.997   2.291   7.678  0.3645  0.7773  0.6785
 3612SOL    HW212257   0.934   2.223   7.797 -1.6481 -1.0057 -1.3189
 3613SOL     OW12258   2.086   2.736   6.702  0.0566 -0.1279 -0.5532
 3613SOL    HW112259   2.057   2.785   6.779  1.3569  2.8622 -1.7993
 3613SOL    HW212260   2.033   2.770   6.630 -0.5025 -2.2018 -1.1822
 3614SOL     OW12261   2.807   4.475   1.161 -0.0612  0.1603 -0.1204
 3614SOL    HW112262   2.805   4.545   1.095 -0.5429  0.5354  0.2822
 3614SOL    HW212263   2.889   4.429   1.145  1.6742  2.5053  1.3345
 3615SOL     OW12264   2.815   6.915   5.415 -0.0022 -0.0473 -0.1430
 3615SOL    HW112265   2.843   7.006   5.404 -0.7294  0.2360  0.2497
 3615SOL    HW212266   2.894   6.864   5.403  0.2592  0.5844 -1.2480
 3616SOL     OW12267   4.360   2.197   4.682 -0.1511  0.5246 -0.2759
 3616SOL    HW112268   4.422   2.242   4.740  1.1508 -0.1362 -1.1070
 3616SOL    HW212269   4.406   2.191   4.598 -1.2817 -0.1421 -0.8660
 3617SOL     OW12270   6.806   0.866   6.217 -0.1116 -0.0661 -0.4788
 3617SOL    HW112271   6.756   0.928   6.270  1.0549  0.7702 -0.3274
 3617SOL    HW212272   6.820   0.791   6.275  1.3935  0.9508  0.5506
 3618SOL     OW12273   3.679   8.010   4.624 -0.3913  0.4647 -0.0229
 3618SOL    HW112274   3.769   7.996   4.651  0.1428 -0.5191 -2.1171
 3618SOL    HW212275   3.627   7.954   4.682  0.7171 -1.6747 -0.9826
 3619SOL     OW12276   2.806   2.859   4.194  0.0346 -0.1266  0.3764
 3619SOL    HW112277   2.894   2.864   4.232  0.6681 -2.0790 -0.7004
 3619SOL    HW212278   2.819   2.823   4.107 -1.8391 -0.4661  0.1899
 3620SOL     OW12279   0.959   4.892   2.314  0.6052  0.1409 -0.1187
 3620SOL    HW112280   0.920   4.948   2.246  1.7557  2.0568  0.7134
 3620SOL    HW212281   0.892   4.827   2.332 -0.2839  0.4398 -2.0865
 3621SOL     OW12282   7.026   6.198   5.790  0.1301 -0.8320  0.4982
 3621SOL    HW112283   6.952   6.146   5.821 -1.0463 -0.0777 -0.9524
 3621SOL    HW212284   6.988   6.259   5.727  2.0799 -0.8080 -0.7116
 3622SOL     OW12285   4.774   0.428   4.515  0.1259  0.0253 -0.1177
 3622SOL    HW112286   4.850   0.370   4.526  1.1392  1.2256 -0.5241
 3622SOL    HW212287   4.804   0.513   4.546 -1.4672  0.2751  0.8459
 3623SOL     OW12288   5.657   3.487   0.163  0.3525  0.1965 -0.5308
 3623SOL    HW112289   5.731   3.466   0.220 -0.3481 -0.8940  0.0155
 3623SOL    HW212290   5.595   3.532   0.220  0.5053  0.9303 -0.9380
 3624SOL     OW12291   5.454   0.095   0.575 -0.0723  0.7718  0.1166
 3624SOL    HW112292   5.468   0.108   0.669  1.7538 -1.1338  0.1858
 3624SOL    HW212293   5.408   0.012   0.569  1.9206 -0.3457 -0.6783
 3625SOL     OW12294   0.465   7.147   4.637  0.2812 -0.1618  0.4465
 3625SOL    HW112295   0.554   7.124   4.662  0.1960 -1.5796 -0.4387
 3625SOL    HW212296   0.462   7.132   4.543 -0.8188  0.1211  0.4235
 3626SOL     OW12297   0.234   2.551   0.355 -0.2336 -0.0618  0.2071
 3626SOL    HW112298   0.161   2.537   0.415 -1.0142 -1.3241 -0.9811
 3626SOL    HW212299   0.298   2.599   0.406 -1.0675 -0.6804  1.9000
 3627SOL     OW12300   0.681   4.042   1.564 -0.6442  0.0583  0.0682
 3627SOL    HW112301   0.617   4.091   1.513 -0.6748  0.1806  0.2264
 3627SOL    HW212302   0.709   3.971   1.505 -2.7117 -1.4862  0.8101
 3628SOL     OW12303   7.926   2.451   5.739  0.0830 -0.3079 -1.1129
 3628SOL    HW112304   7.905   2.475   5.829  1.6159 -0.1129 -0.7827
 3628SOL    HW212305   7.949   2.534   5.697 -0.4821 -0.4196 -1.6535
 3629SOL     OW12306   3.165   0.457   4.448 -0.1066  0.6057  0.5172
 3629SOL    HW112307   3.217   0.381   4.472 -1.4903 -0.5317  0.0817
 3629SOL    HW212308   3.096   0.461   4.514 -0.5971  0.8940  0.0044
 3630SOL     OW12309   4.399   2.105   3.219  0.3517  0.5384 -0.0984
 3630SOL    HW112310   4.353   2.187   3.200  1.1290  1.1642  0.6408
 3630SOL    HW212311   4.416   2.109   3.313  0.7209 -0.3108 -0.1268
 3631SOL     OW12312   1.859   0.845   0.353 -0.3089  0.0147  0.5008
 3631SOL    HW112313   1.829   0.796   0.277  0.1472  0.8427 -0.2275
 3631SOL    HW212314   1.877   0.778   0.419 -1.8486 -0.6392  0.3122
 3632SOL     OW12315   7.252   2.491   5.403 -0.0288 -0.6284 -0.4087
 3632SOL    HW112316   7.194   2.473   5.329 -1.4839 -0.1824  0.5958
 3632SOL    HW212317   7.333   2.521   5.363 -0.5955 -0.9327 -1.8340
 3633SOL     OW12318   1.157   5.355   0.946  0.5056 -0.5953  0.4925
 3633SOL    HW112319   1.108   5.300   0.885  1.1824  0.7895 -1.3830
 3633SOL    HW212320   1.129   5.444   0.927 -0.7369 -0.1805  3.6225
 3634SOL     OW12321   7.138   7.383   6.362 -0.1574 -0.5046 -0.1629
 3634SOL    HW112322   7.095   7.304   6.331  1.5520 -1.3801 -0.4223
 3634SOL    HW212323   7.169   7.426   6.282 -2.4334  1.3181 -0.1656
 3635SOL     OW12324   7.433   5.826   1.275  0.3396 -0.2657  0.5329
 3635SOL    HW112325   7.445   5.757   1.210  1.9771 -0.3805  0.9154
 3635SOL    HW212326   7.455   5.907   1.229 -1.8028  0.0797  0.0184
 3636SOL     OW12327   2.335   6.674   6.715 -0.4621 -0.2101  0.4487
 3636SOL    HW112328   2.265   6.625   6.758 -0.6289  0.9409  1.5421
 3636SOL    HW212329   2.319   6.765   6.740  2.2283 -0.0528  1.9308
 3637SOL     OW12330   7.619   2.021   6.820  0.3895  0.1837 -0.3137
 3637SOL    HW112331   7.529   2.049   6.801 -0.2346 -1.9465 -0.7578
 3637SOL    HW212332   7.648   2.080   6.890 -1.7945  0.1833  0.6919
 3638SOL     OW12333   3.169   2.786   0.483  0.1034  0.2893  0.0586
 3638SOL    HW112334   3.081   2.819   0.498  0.8833  2.7795 -0.4447
 3638SOL    HW212335   3.163   2.734   0.403 -0.6920  1.5556 -0.7384
 3639SOL     OW12336   4.316   6.290   7.080  0.2192 -0.8878  0.7783
 3639SOL    HW112337   4.306   6.332   6.995 -0.8931 -2.8346 -0.1089
 3639SOL    HW212338   4.235   6.311   7.127  0.4434 -0.5672  1.0286
 3640SOL     OW12339   6.780   4.185   0.818  0.5064 -0.4143 -0.2065
 3640SOL    HW112340   6.688   4.205   0.801 -0.3755 -3.5460  0.3232
 3640SOL    HW212341   6.820   4.271   0.836 -2.5131  0.9609  0.5897
 3641SOL     OW12342   3.618   5.920   3.885  0.6891 -0.4021  0.0683
 3641SOL    HW112343   3.633   5.876   3.968  1.6777  0.4665  0.3624
 3641SOL    HW212344   3.541   5.876   3.848 -0.3667 -0.1519  1.8834
 3642SOL     OW12345   6.079   2.045   6.458 -0.5810  0.0922 -0.2477
 3642SOL    HW112346   6.109   1.981   6.394 -0.6851 -1.6508  1.3338
 3642SOL    HW212347   6.035   1.993   6.525  0.9206  1.5843  2.0704
 3643SOL     OW12348   0.245   3.477   3.231 -0.5011  0.6798 -0.2460
 3643SOL    HW112349   0.200   3.448   3.310 -1.3406 -0.5752 -1.1433
 3643SOL    HW212350   0.333   3.500   3.260  0.1308 -2.4070  0.6697
 3644SOL     OW12351   6.527   3.993   5.735  0.7847  0.3033  0.4922
 3644SOL    HW112352   6.494   4.031   5.816  0.8332  1.4279  0.0119
 3644SOL    HW212353   6.612   4.036   5.722  0.7627  0.1549 -0.1598
 3645SOL     OW12354   0.985   7.236   6.439 -0.4355 -0.5137  0.7783
 3645SOL    HW112355   1.035   7.198   6.367 -1.4213 -0.3591 -0.0200
 3645SOL    HW212356   0.928   7.165   6.469 -1.1044 -0.1564  0.3829
 3646SOL     OW12357   2.824   3.627   1.671 -0.6987  0.4788  0.2133
 3646SOL    HW112358   2.764   3.697   1.697 -2.1039 -1.0912  1.4067
 3646SOL    HW212359   2.909   3.670   1.665 -0.8836  1.7369  4.0526
 3647SOL     OW12360   4.118   0.317   2.647  0.3599  0.5210  0.4647
 3647SOL    HW112361   4.134   0.225   2.627  0.3277  0.0736  2.3361
 3647SOL    HW212362   4.042   0.317   2.705 -0.1222  1.8096 -0.1151
 3648SOL     OW12363   6.213   4.761   0.287  0.0128  0.6052 -0.1482
 3648SOL    HW112364   6.306   4.760   0.310 -0.1154  2.2274  0.5778
 3648SOL    HW212365   6.206   4.828   0.218 -0.7820  1.4117  0.6919
 3649SOL     OW12366   7.802   6.437   1.235 -0.2377  0.2663 -0.1388
 3649SOL    HW112367   7.837   6.490   1.306  1.1258  0.0584 -0.6177
 3649SOL    HW212368   7.880   6.404   1.190 -1.0620 -0.9015 -0.7614
 3650SOL     OW12369   1.237   0.038   0.670  0.4566  0.7284 -0.4427
 3650SOL    HW112370   1.328   0.010   0.680  0.3106 -0.3123 -1.7336
 3650SOL    HW212371   1.205   0.047   0.759  0.6281 -3.0620  0.1850
 3651SOL     OW12372   2.651   3.668   3.246 -0.4932  0.2163 -0.3567
 3651SOL    HW112373   2.573   3.648   3.194 -3.0445 -0.7185  3.3739
 3651SOL    HW212374   2.659   3.593   3.305  1.6474  1.5443  1.1645
 3652SOL     OW12375   3.501   6.378   0.512 -0.4939  0.1385 -0.5643
 3652SOL    HW112376   3.424   6.323   0.521  0.2773 -0.9467 -0.4200
 3652SOL    HW212377   3.487   6.427   0.431 -1.9483  0.9945  0.1675
 3653SOL     OW12378   3.949   3.524   4.022 -0.4843  0.2654 -0.6984
 3653SOL    HW112379   3.899   3.529   3.940  0.6874 -1.2047 -1.5585
 3653SOL    HW212380   3.968   3.615   4.044 -1.5559  0.7320 -1.5758
 3654SOL     OW12381   4.111   7.542   3.346 -0.3950 -0.2594 -0.1255
 3654SOL    HW112382   4.183   7.602   3.366 -0.0241 -0.8780  0.4269
 3654SOL    HW212383   4.107   7.482   3.421 -0.6381 -1.0315 -0.7339
 3655SOL     OW12384   3.020   6.310   4.955 -0.5624 -0.2465  0.3568
 3655SOL    HW112385   3.005   6.336   4.864  0.7623  1.2861  0.5308
 3655SOL    HW212386   2.996   6.388   5.006  1.1669 -0.1534  1.1014
 3656SOL     OW12387   3.250   5.609   7.979  0.2181  0.0912 -0.7112
 3656SOL    HW112388   3.208   5.614   8.065  1.1575 -0.2105 -0.2254
 3656SOL    HW212389   3.312   5.681   7.978  0.2427  0.0641 -1.1236
 3657SOL     OW12390   5.104   3.441   4.503  0.0505 -0.0735  0.0477
 3657SOL    HW112391   5.031   3.386   4.473  0.1259 -0.6273  0.8572
 3657SOL    HW212392   5.078   3.530   4.479 -0.3293 -0.3875 -0.7723
 3658SOL     OW12393   5.841   3.984   1.765  0.0117 -0.3241  0.5074
 3658SOL    HW112394   5.858   4.026   1.849  0.1111  0.4661  0.1072
 3658SOL    HW212395   5.889   4.038   1.702 -0.3438 -0.7010 -0.0931
 3659SOL     OW12396   4.675   7.202   3.124  0.2821 -0.3290  0.2390
 3659SOL    HW112397   4.591   7.190   3.167 -0.1507 -0.2754 -0.5787
 3659SOL    HW212398   4.739   7.204   3.196 -0.5188  0.7330  0.9468
 3660SOL     OW12399   5.268   2.416   1.056 -0.4458  0.1770 -0.1888
 3660SOL    HW112400   5.218   2.450   1.130  0.2952 -0.1789  0.4863
 3660SOL    HW212401   5.334   2.359   1.095  1.0267  1.2630 -0.9797
 3661SOL     OW12402   2.789   6.523   6.611  0.4822  0.1479  0.1282
 3661SOL    HW112403   2.694   6.510   6.609  0.8311 -3.3167 -0.1428
 3661SOL    HW212404   2.811   6.522   6.704  0.3460 -0.1397  0.1603
 3662SOL     OW12405   1.298   2.297   7.579 -0.0546 -0.3446  0.4445
 3662SOL    HW112406   1.364   2.228   7.568  0.1853 -0.4403  2.2302
 3662SOL    HW212407   1.220   2.262   7.536 -0.1484 -2.0903  1.9183
 3663SOL     OW12408   4.265   1.314   2.699  0.1027 -0.2032  0.3325
 3663SOL    HW112409   4.197   1.255   2.730  1.2196 -1.5066  0.4189
 3663SOL    HW212410   4.257   1.391   2.754  0.5197 -1.5017  2.3287
 3664SOL     OW12411   6.412   5.564   2.307 -0.4895 -0.4917 -0.2060
 3664SOL    HW112412   6.393   5.470   2.308  0.4224 -0.6761  0.1148
 3664SOL    HW212413   6.489   5.573   2.251  1.4111 -0.3505  2.2533
 3665SOL     OW12414   4.032   7.787   1.089 -0.0770  0.0185 -0.3428
 3665SOL    HW112415   4.056   7.860   1.146 -0.8612 -0.2593  0.3662
 3665SOL    HW212416   3.936   7.785   1.091 -0.0664 -1.0143 -0.3544
 3666SOL     OW12417   2.437   5.989   5.543  0.2075 -0.4004  0.4870
 3666SOL    HW112418   2.441   5.950   5.456 -1.2397  0.3096  0.0637
 3666SOL    HW212419   2.435   5.915   5.603  0.2886 -0.9151 -0.1413
 3667SOL     OW12420   3.714   2.566   0.173 -0.5206 -0.1810 -0.1050
 3667SOL    HW112421   3.684   2.652   0.204 -2.8399 -1.0411  0.2139
 3667SOL    HW212422   3.678   2.558   0.085  0.2226 -0.5771 -0.3802
 3668SOL     OW12423   1.345   2.313   6.521 -0.1623 -0.2496  0.3834
 3668SOL    HW112424   1.382   2.240   6.471 -0.7175 -1.0884  1.1514
 3668SOL    HW212425   1.418   2.347   6.572  0.1520 -0.1377 -0.1489
 3669SOL     OW12426   0.020   2.681   1.192  0.1595  0.2429  0.0308
 3669SOL    HW112427  -0.006   2.744   1.124  0.3851  0.8005  0.4560
 3669SOL    HW212428   0.114   2.672   1.181  0.0957 -0.2173 -0.1843
 3670SOL     OW12429   0.904   3.648   1.136  0.7028 -0.1075  0.1630
 3670SOL    HW112430   0.984   3.698   1.122 -0.3457  2.0368  1.4049
 3670SOL    HW212431   0.888   3.604   1.053  2.6353  0.1880 -0.4020
 3671SOL     OW12432   1.244   1.296   5.881  0.1124  0.1894  0.2264
 3671SOL    HW112433   1.296   1.376   5.880  1.4690 -0.5791  2.3708
 3671SOL    HW212434   1.305   1.227   5.906 -1.7572 -0.8411  2.4022
 3672SOL     OW12435   6.090   3.502   1.930  0.2357  0.2001 -0.3912
 3672SOL    HW112436   6.058   3.413   1.918 -1.4042  0.5092  1.2039
 3672SOL    HW212437   6.182   3.498   1.908  0.0494 -1.7494 -0.9599
 3673SOL     OW12438   4.920   6.179   5.539  0.1209  0.0858 -1.0915
 3673SOL    HW112439   4.876   6.205   5.458  0.9405 -1.4599 -2.0830
 3673SOL    HW212440   4.887   6.091   5.557  1.2730 -0.2942 -0.7329
 3674SOL     OW12441   4.632   3.892   3.239  0.5987  0.6103 -0.7339
 3674SOL    HW112442   4.614   3.979   3.274 -0.5611 -0.5983  1.9215
 3674SOL    HW212443   4.550   3.866   3.196  1.0690  0.9498 -1.8612
 3675SOL     OW12444   4.700   6.418   0.520 -0.0503  0.5997 -1.3454
 3675SOL    HW112445   4.754   6.339   0.509  0.3093  0.8852 -1.6744
 3675SOL    HW212446   4.764   6.488   0.536 -0.2166  1.1584 -2.9071
 3676SOL     OW12447   3.984   7.359   7.567  0.0228 -0.6161 -0.2181
 3676SOL    HW112448   3.991   7.455   7.560 -0.4827 -0.5601  0.0053
 3676SOL    HW212449   4.072   7.327   7.547  0.2026 -0.1021 -0.2652
 3677SOL     OW12450   2.486   0.334   1.272 -0.3613  0.5868 -0.1763
 3677SOL    HW112451   2.397   0.309   1.248 -1.2400  1.9686  1.4008
 3677SOL    HW212452   2.542   0.291   1.207 -2.0741 -1.2455 -0.5290
 3678SOL     OW12453   7.662   2.153   4.898  0.3718 -0.2083  0.5416
 3678SOL    HW112454   7.728   2.219   4.923  0.9869 -0.6522  0.1281
 3678SOL    HW212455   7.688   2.126   4.810  0.6270 -1.6053  1.0268
 3679SOL     OW12456   0.232   4.328   2.138 -0.3073  0.1312  0.4286
 3679SOL    HW112457   0.145   4.289   2.129 -0.2831  0.5923 -4.1553
 3679SOL    HW212458   0.220   4.419   2.110  1.3718  0.7918  1.6734
 3680SOL     OW12459   5.598   4.261   6.061 -0.0159 -0.1220  0.3496
 3680SOL    HW112460   5.625   4.346   6.095  1.5506 -0.1785 -0.6367
 3680SOL    HW212461   5.559   4.216   6.136 -0.8435  1.4387  0.8834
 3681SOL     OW12462   5.454   1.274   1.934  0.3366  0.6783 -0.1218
 3681SOL    HW112463   5.419   1.195   1.893 -0.6805  0.6590  0.7429
 3681SOL    HW212464   5.523   1.303   1.874  0.1244 -0.3555 -0.9044
 3682SOL     OW12465   7.469   3.708   1.627  0.1291  0.2765  0.3501
 3682SOL    HW112466   7.459   3.797   1.661 -1.4765  0.1902  0.2098
 3682SOL    HW212467   7.495   3.656   1.702 -2.6028  0.2287  1.3822
 3683SOL     OW12468   5.047   3.725   2.509  0.1931  0.5312  0.4472
 3683SOL    HW112469   4.982   3.771   2.562 -0.0229  0.6069  0.1233
 3683SOL    HW212470   4.996   3.679   2.443  0.5399  2.2607 -1.1189
 3684SOL     OW12471   0.456   2.079   4.348  0.4744 -0.6082  0.3042
 3684SOL    HW112472   0.470   1.988   4.374 -1.9741 -1.6129 -1.5063
 3684SOL    HW212473   0.399   2.115   4.415 -0.5517 -1.1902 -0.2412
 3685SOL     OW12474   3.474   6.657   5.550  0.4266  0.0630 -0.0478
 3685SOL    HW112475   3.497   6.678   5.459 -0.4787  0.8112 -0.1090
 3685SOL    HW212476   3.545   6.695   5.602 -0.0457  1.3462 -0.3139
 3686SOL     OW12477   2.490   1.889   6.279  0.2286  0.0371 -0.1233
 3686SOL    HW112478   2.402   1.860   6.300 -0.2596  1.3156 -0.3019
 3686SOL    HW212479   2.524   1.822   6.219 -0.3875 -0.7781  0.4299
 3687SOL     OW12480   1.756   4.731   1.348 -0.7325  0.6866 -0.9596
 3687SOL    HW112481   1.661   4.726   1.339 -0.6998 -2.7572 -0.7293
 3687SOL    HW212482   1.773   4.703   1.438  0.5223 -0.9741 -1.6532
 3688SOL     OW12483   0.921   4.094   5.834  0.6433  0.4083 -0.5071
 3688SOL    HW112484   0.835   4.111   5.872  0.7530 -0.1639  0.0268
 3688SOL    HW212485   0.903   4.067   5.744  0.0921 -1.5854  0.1464
 3689SOL     OW12486   5.581   1.666   1.279  0.1798  0.7061 -0.2390
 3689SOL    HW112487   5.506   1.715   1.245  0.8863  2.1109  0.1160
 3689SOL    HW212488   5.569   1.577   1.247 -1.2240  1.0842 -0.8331
 3690SOL     OW12489   0.580   0.988   3.539  0.6179 -0.1847  0.1243
 3690SOL    HW112490   0.645   0.928   3.574  0.6010 -0.0929  0.3098
 3690SOL    HW212491   0.570   1.056   3.605  1.6032  0.7504 -0.6597
 3691SOL     OW12492   4.021   1.408   0.075 -0.8065  1.0940  0.0077
 3691SOL    HW112493   4.080   1.481   0.058 -2.1541  2.2298  0.0171
 3691SOL    HW212494   3.934   1.448   0.082 -1.2836 -0.1846  2.4508
 3692SOL     OW12495   2.928   6.854   3.279  0.3950 -0.3157 -0.4074
 3692SOL    HW112496   2.880   6.937   3.273  0.5237 -0.2536 -0.5913
 3692SOL    HW212497   3.020   6.880   3.278  0.4504 -0.3469  1.1212
 3693SOL     OW12498   0.382   6.105   7.167  0.0434  0.4208  0.5047
 3693SOL    HW112499   0.457   6.152   7.132  0.9628 -0.6621  0.9679
 3693SOL    HW212500   0.323   6.095   7.092  1.5572 -1.0563 -0.5466
 3694SOL     OW12501   1.131   5.203   6.198 -0.5770 -0.4030 -0.2085
 3694SOL    HW112502   1.188   5.251   6.138 -0.8890  0.7773  0.4086
 3694SOL    HW212503   1.190   5.138   6.239  0.1395  0.2332 -0.2011
 3695SOL     OW12504   6.329   7.464   2.650  0.0275 -0.2504  0.1148
 3695SOL    HW112505   6.254   7.448   2.592  0.9491 -1.8646 -0.6865
 3695SOL    HW212506   6.371   7.542   2.613 -0.3611 -0.2582 -0.3634
 3696SOL     OW12507   7.583   1.248   2.212  0.3986 -0.0869  0.4253
 3696SOL    HW112508   7.621   1.274   2.296  1.9308 -1.5530  0.2352
 3696SOL    HW212509   7.553   1.158   2.226 -1.1677  0.3296 -0.0531
 3697SOL     OW12510   3.137   7.222   0.100 -0.3204  0.1864  0.0748
 3697SOL    HW112511   3.220   7.174   0.110  0.0766  1.0199  0.9774
 3697SOL    HW212512   3.138   7.286   0.171 -0.5462  1.9709 -1.4611
 3698SOL     OW12513   5.694   7.767   6.963 -0.1041  0.2916 -0.2706
 3698SOL    HW112514   5.619   7.723   6.921  0.3259 -1.0422  0.2882
 3698SOL    HW212515   5.685   7.745   7.056  0.9687  0.1306 -0.1973
 3699SOL     OW12516   3.016   6.386   0.307 -0.8514 -0.3560  0.1503
 3699SOL    HW112517   3.107   6.357   0.298 -0.3277  0.7531  1.5051
 3699SOL    HW212518   2.983   6.390   0.217  1.0226  0.9638 -0.5402
 3700SOL     OW12519   7.947   3.573   1.434  0.1633 -0.2243 -0.8483
 3700SOL    HW112520   7.944   3.621   1.517 -0.6724 -0.2373 -0.8643
 3700SOL    HW212521   7.920   3.638   1.368  1.0591 -0.1459 -1.1457
 3701SOL     OW12522   2.811   0.271   3.523  0.0477  0.1330 -0.5420
 3701SOL    HW112523   2.889   0.259   3.468 -0.5798  0.1320 -1.4460
 3701SOL    HW212524   2.844   0.315   3.601  1.3849 -1.9709  0.1867
 3702SOL     OW12525   2.162   2.472   6.730  0.0358  0.1163 -0.5831
 3702SOL    HW112526   2.239   2.463   6.674  0.4398  1.9417 -0.3671
 3702SOL    HW212527   2.134   2.563   6.719 -0.9279  0.0235  0.8359
 3703SOL     OW12528   3.220   6.258   2.252 -0.0894  0.3245  0.0570
 3703SOL    HW112529   3.149   6.263   2.315 -0.8949  1.4029 -0.8954
 3703SOL    HW212530   3.234   6.348   2.223  0.8323 -0.0287 -0.6870
 3704SOL     OW12531   3.440   2.771   5.591  0.0976 -0.0608  0.0431
 3704SOL    HW112532   3.403   2.859   5.594  0.7431  0.2091  0.3947
 3704SOL    HW212533   3.517   2.775   5.648  1.0120 -0.4323 -1.1189
 3705SOL     OW12534   2.614   2.917   1.466 -0.0800  0.0829 -0.6874
 3705SOL    HW112535   2.587   2.952   1.381 -1.2515  1.1245  0.0679
 3705SOL    HW212536   2.541   2.863   1.494 -0.2309  0.7087  0.1699
 3706SOL     OW12537   3.163   2.485   5.450  0.8560 -0.1828 -0.0566
 3706SOL    HW112538   3.112   2.521   5.522  1.6784 -2.3206  1.7184
 3706SOL    HW212539   3.242   2.539   5.447 -0.2949  1.5410 -1.1505
 3707SOL     OW12540   7.064   8.048   4.593  0.1932  0.0213 -0.5105
 3707SOL    HW112541   7.128   8.097   4.644 -2.8631  3.2808  0.5902
 3707SOL    HW212542   7.053   7.966   4.642  1.2210  0.7503  1.0276
 3708SOL     OW12543   2.713   2.080   2.953  0.2326 -0.4692 -0.4781
 3708SOL    HW112544   2.745   2.038   2.873  0.5700  0.8542 -1.0664
 3708SOL    HW212545   2.791   2.115   2.995 -0.0365 -0.4505  0.0147
 3709SOL     OW12546   4.864   3.891   4.600  1.1515  0.4727  0.3387
 3709SOL    HW112547   4.792   3.923   4.546  0.8804 -0.8502 -0.1335
 3709SOL    HW212548   4.822   3.861   4.680  1.0666 -0.7795 -0.1418
 3710SOL     OW12549   8.051   2.802   7.600  0.1366 -0.4142 -0.5423
 3710SOL    HW112550   8.002   2.874   7.637 -0.1818 -0.7564 -0.2993
 3710SOL    HW212551   8.143   2.828   7.611  0.0298 -0.1486 -0.2564
 3711SOL     OW12552   4.988   2.232   6.575  0.1860  0.1707  0.6227
 3711SOL    HW112553   5.068   2.280   6.556  0.7901 -1.1728 -0.4126
 3711SOL    HW212554   4.960   2.197   6.490 -1.7325  0.9260  0.8857
 3712SOL     OW12555   0.389   6.356   1.173 -0.0512  0.4159  0.5021
 3712SOL    HW112556   0.434   6.275   1.193  1.8356  1.3696  0.3410
 3712SOL    HW212557   0.303   6.347   1.213  0.3013 -1.4440  0.8971
 3713SOL     OW12558   7.616   4.619   7.607 -0.2269  0.1744  0.3544
 3713SOL    HW112559   7.655   4.669   7.535 -1.1728  0.4865  0.0332
 3713SOL    HW212560   7.615   4.529   7.576 -2.2370  0.5373 -0.8087
 3714SOL     OW12561   8.034   6.846   0.868  0.2468  0.0448  0.1489
 3714SOL    HW112562   7.971   6.884   0.930 -0.9009  0.0447 -0.9959
 3714SOL    HW212563   8.051   6.758   0.901 -0.8437 -0.1808  0.1257
 3715SOL     OW12564   2.588   7.593   4.942 -0.1838 -0.0911 -0.3842
 3715SOL    HW112565   2.603   7.687   4.954  0.8667 -0.2159 -0.5919
 3715SOL    HW212566   2.534   7.587   4.863 -0.6001  0.3490 -0.1384
 3716SOL     OW12567   2.816   0.061   7.968  0.3631 -0.2290 -0.1736
 3716SOL    HW112568   2.868   0.047   7.889  0.4543  0.7434 -0.2924
 3716SOL    HW212569   2.815   0.156   7.980 -0.0989 -0.3339  0.6930
 3717SOL     OW12570   4.349   6.462   0.365  0.1814  0.1213 -0.7264
 3717SOL    HW112571   4.295   6.535   0.334  0.3891  1.5369  1.9135
 3717SOL    HW212572   4.411   6.502   0.426  2.2832 -1.8989 -1.3833
 3718SOL     OW12573   6.721   5.748   6.857 -0.3316  0.4106  0.4896
 3718SOL    HW112574   6.763   5.813   6.913  0.7801  0.3101 -0.2071
 3718SOL    HW212575   6.657   5.798   6.806  0.9348  1.0950 -0.4804
 3719SOL     OW12576   1.164   5.796   2.657  0.2703 -0.4852  0.4702
 3719SOL    HW112577   1.189   5.746   2.579  2.5889  0.3351  0.6152
 3719SOL    HW212578   1.172   5.734   2.729 -0.2687 -0.8027  0.2648
 3720SOL     OW12579   6.149   4.130   4.828  0.0791 -1.3457  0.3781
 3720SOL    HW112580   6.073   4.076   4.806  0.2778 -2.3313  1.9294
 3720SOL    HW212581   6.225   4.075   4.809  0.4273 -0.5350 -0.7266
 3721SOL     OW12582   0.755   7.323   8.061  0.0057  0.2851  0.5122
 3721SOL    HW112583   0.781   7.345   7.971 -2.5826  1.9149  0.0520
 3721SOL    HW212584   0.783   7.397   8.114  0.8099 -0.3041  0.9263
 3722SOL     OW12585   3.906   3.231   0.650  0.0339 -0.5944  0.0173
 3722SOL    HW112586   3.816   3.207   0.631 -0.0270 -0.9454  0.7078
 3722SOL    HW212587   3.941   3.156   0.699  0.9488 -0.8136 -0.9386
 3723SOL     OW12588   0.552   1.224   5.989  0.5483  0.3486  0.1849
 3723SOL    HW112589   0.533   1.318   5.987  0.1584  0.2714  0.1460
 3723SOL    HW212590   0.639   1.216   5.951  1.6600  0.9527  2.4479
 3724SOL     OW12591   4.955   7.357   6.771 -0.4719 -0.4196  0.0476
 3724SOL    HW112592   4.915   7.432   6.816  1.9077  2.7312 -2.6118
 3724SOL    HW212593   4.942   7.284   6.831 -4.1750  1.7162  2.2637
 3725SOL     OW12594   7.528   7.966   2.113 -0.1816 -0.1247 -0.0181
 3725SOL    HW112595   7.542   7.969   2.207 -0.0571  0.8772 -0.0592
 3725SOL    HW212596   7.546   8.055   2.083 -2.4630  0.1962 -0.6666
 3726SOL     OW12597   5.840   7.030   1.705 -0.4526  0.4586 -0.0486
 3726SOL    HW112598   5.787   7.049   1.628  0.6075 -0.9964 -1.2225
 3726SOL    HW212599   5.783   6.980   1.763 -1.3071  1.6978  0.1973
 3727SOL     OW12600   2.382   5.349   0.044 -0.4299 -0.0850  0.2395
 3727SOL    HW112601   2.338   5.350  -0.041 -0.3306 -0.6039  0.1762
 3727SOL    HW212602   2.466   5.306   0.027  0.1438  0.9767  0.3421
 3728SOL     OW12603   0.692   6.914   7.863  0.5065  0.1752 -0.3289
 3728SOL    HW112604   0.627   6.877   7.804  0.0030 -1.4906  1.1784
 3728SOL    HW212605   0.770   6.861   7.850  1.2513  1.4655 -1.3282
 3729SOL     OW12606   2.010   5.707   6.280 -0.1006 -0.1179  0.6103
 3729SOL    HW112607   2.093   5.745   6.310  0.3135 -1.1768  0.8564
 3729SOL    HW212608   2.021   5.695   6.186  0.1260 -0.4773  0.6797
 3730SOL     OW12609   4.071   3.608   4.754 -0.2157 -0.0610  0.2741
 3730SOL    HW112610   4.109   3.580   4.671 -0.2592  0.1462  0.1835
 3730SOL    HW212611   3.989   3.558   4.761  0.0082 -0.4132  0.4082
 3731SOL     OW12612   1.139   6.148   2.368 -0.0065 -1.0043 -0.2923
 3731SOL    HW112613   1.179   6.220   2.318 -0.9255  0.3528  0.8589
 3731SOL    HW212614   1.196   6.138   2.444 -1.2652  0.2851  0.8613
 3732SOL     OW12615   4.913   4.841   1.271 -0.4248  0.0772  0.1653
 3732SOL    HW112616   4.970   4.768   1.295 -0.6139 -0.6336 -1.4394
 3732SOL    HW212617   4.920   4.901   1.345 -0.2760 -1.5530  1.5537
 3733SOL     OW12618   5.127   6.651   0.656 -0.2507 -0.1581 -0.7984
 3733SOL    HW112619   5.139   6.704   0.735 -1.5952  0.8112 -1.1924
 3733SOL    HW212620   5.207   6.666   0.605  0.1873  0.0148 -0.0779
 3734SOL     OW12621   0.880   2.833   5.567 -0.2829 -0.0230 -0.4903
 3734SOL    HW112622   0.851   2.797   5.651 -0.2853  0.4854 -0.2686
 3734SOL    HW212623   0.830   2.915   5.558 -0.0181  0.1020 -0.8149
 3735SOL     OW12624   3.702   2.025   0.014  0.4328  0.4339 -0.9013
 3735SOL    HW112625   3.749   2.002   0.094  1.1033 -0.3076 -1.4934
 3735SOL    HW212626   3.738   2.110  -0.012  1.7252 -0.2699 -1.5258
 3736SOL     OW12627   6.780   3.993   1.545 -0.0855  0.0777 -0.0983
 3736SOL    HW112628   6.869   4.022   1.528  0.6043 -1.3057  0.9535
 3736SOL    HW212629   6.786   3.940   1.624 -1.8907  0.1434  0.1392
 3737SOL     OW12630   0.652   4.461   3.220 -0.1960  0.6012 -0.1468
 3737SOL    HW112631   0.624   4.444   3.129 -0.1169 -0.3788 -0.0011
 3737SOL    HW212632   0.570   4.461   3.270 -0.1196 -0.3997  0.0004
 3738SOL     OW12633   5.123   2.430   2.412 -0.6926 -0.8273  0.2809
 3738SOL    HW112634   5.191   2.370   2.442  0.0714  0.4778  1.2747
 3738SOL    HW212635   5.047   2.408   2.466 -0.5943 -1.2507  0.2543
 3739SOL     OW12636   8.018   5.729   5.341  0.5938 -0.5644 -0.1508
 3739SOL    HW112637   8.068   5.806   5.316  0.7822 -0.8322 -0.6145
 3739SOL    HW212638   7.988   5.692   5.258  1.0072 -1.3173  0.0242
 3740SOL     OW12639   4.573   5.392   3.470  0.6585  0.0489 -0.1242
 3740SOL    HW112640   4.658   5.409   3.429  2.1749  0.5353  2.9228
 3740SOL    HW212641   4.534   5.479   3.482 -0.0664 -0.1359 -1.0490
 3741SOL     OW12642   1.550   4.519   3.423 -0.1982  0.4515 -0.0506
 3741SOL    HW112643   1.522   4.559   3.505 -2.1089  2.0966 -1.4030
 3741SOL    HW212644   1.510   4.432   3.424 -0.4782  0.5843  0.6177
 3742SOL     OW12645   1.862   5.879   2.119 -0.2071 -0.6708 -0.0617
 3742SOL    HW112646   1.930   5.925   2.071  0.0741 -1.0936 -0.0717
 3742SOL    HW212647   1.781   5.899   2.072  0.0017 -0.7009 -0.4361
 3743SOL     OW12648   2.767   3.617   1.003 -0.6949  0.0346  0.1503
 3743SOL    HW112649   2.794   3.708   0.987 -1.4901  0.3504  0.5567
 3743SOL    HW212650   2.832   3.565   0.955 -0.9118  0.8450 -1.1019
 3744SOL     OW12651   0.647   5.779   4.505 -0.4956  0.6493 -0.3778
 3744SOL    HW112652   0.695   5.768   4.422 -0.4689  1.7961 -0.5334
 3744SOL    HW212653   0.556   5.758   4.483 -0.0632 -1.9789  0.0205
 3745SOL     OW12654   2.538   0.248   7.234  0.3030 -0.7297 -0.4942
 3745SOL    HW112655   2.489   0.179   7.190 -1.6545 -0.3270  0.9133
 3745SOL    HW212656   2.599   0.202   7.292 -1.1269 -1.3213  0.5923
 3746SOL     OW12657   1.231   4.647   4.931  0.2122 -0.3518  0.4509
 3746SOL    HW112658   1.325   4.666   4.938  0.0054  0.0894  3.9625
 3746SOL    HW212659   1.222   4.558   4.964 -0.6701 -0.1163  0.8620
 3747SOL     OW12660   7.708   4.149   4.953 -0.4827 -0.3982  0.3541
 3747SOL    HW112661   7.720   4.209   4.880 -2.2172  1.5398  1.5680
 3747SOL    HW212662   7.746   4.195   5.028 -0.7836 -1.3422  1.1059
 3748SOL     OW12663   0.942   3.560   7.937  0.0213  0.1644  0.1538
 3748SOL    HW112664   1.035   3.544   7.918  0.4819  1.7340  0.8990
 3748SOL    HW212665   0.915   3.485   7.989  1.0806  0.0189  0.5218
 3749SOL     OW12666   5.818   5.899   2.564  0.1210 -0.4915  0.4541
 3749SOL    HW112667   5.907   5.919   2.592  0.8896 -1.6736 -1.0494
 3749SOL    HW212668   5.827   5.825   2.505 -1.3717  1.7351 -2.8833
 3750SOL     OW12669   0.746   5.543   6.531 -0.1468 -0.2718 -0.3409
 3750SOL    HW112670   0.651   5.532   6.537 -0.1841  0.0852 -0.2128
 3750SOL    HW212671   0.766   5.533   6.438 -0.7362  2.6821 -0.8850
 3751SOL     OW12672   0.158   7.217   7.173  0.1123  0.2942  0.3758
 3751SOL    HW112673   0.134   7.296   7.123 -0.7265  0.2274  0.6629
 3751SOL    HW212674   0.225   7.247   7.234  0.8736  0.4642 -0.5081
 3752SOL     OW12675   6.314   0.411   2.475  0.3064  0.2961  0.3298
 3752SOL    HW112676   6.312   0.502   2.503 -0.2859  0.2311  0.5097
 3752SOL    HW212677   6.354   0.364   2.548  0.0377  0.3282  0.5021
 3753SOL     OW12678   5.082   7.716   2.491  0.4271  0.3705  0.4314
 3753SOL    HW112679   5.063   7.693   2.400  1.4892  1.7092 -0.1658
 3753SOL    HW212680   5.134   7.796   2.485 -0.5152  1.1863  2.2721
 3754SOL     OW12681   3.372   0.576   5.989 -1.0298 -0.0465 -0.5639
 3754SOL    HW112682   3.394   0.486   6.013 -2.1411 -0.2570 -0.3003
 3754SOL    HW212683   3.416   0.589   5.905 -1.1720 -0.9630 -0.7952
 3755SOL     OW12684   4.158   7.353   0.740  0.0425 -0.1544 -0.2475
 3755SOL    HW112685   4.242   7.313   0.763  1.2253  1.6197 -1.2397
 3755SOL    HW212686   4.169   7.445   0.761 -0.8105  0.5356 -2.5365
 3756SOL     OW12687   5.636   1.032   0.184 -0.4920  0.1048 -0.1735
 3756SOL    HW112688   5.659   1.077   0.265 -1.7481 -0.6062  0.6128
 3756SOL    HW212689   5.540   1.030   0.184 -0.4890 -2.0495 -0.4310
 3757SOL     OW12690   6.501   1.310   3.251 -0.4632  0.0900  0.1481
 3757SOL    HW112691   6.554   1.342   3.323  0.5070  0.6107 -0.7712
 3757SOL    HW212692   6.411   1.328   3.278 -0.1226  0.2235  1.2433
 3758SOL     OW12693   2.901   7.908   4.513  0.0497 -0.2283  0.0725
 3758SOL    HW112694   2.910   7.923   4.419  0.9769  1.1158  0.3526
 3758SOL    HW212695   2.848   7.829   4.519 -2.3917  1.1438 -1.5549
 3759SOL     OW12696   0.240   4.138   5.397 -0.2928 -1.0918 -0.7094
 3759SOL    HW112697   0.155   4.175   5.420  0.1531  0.0507 -0.8484
 3759SOL    HW212698   0.261   4.079   5.470 -0.0718  0.5322  0.6026
 3760SOL     OW12699   3.739   6.236   1.122 -0.2379  0.4222 -0.1583
 3760SOL    HW112700   3.794   6.164   1.091  1.1060  1.9700 -1.5413
 3760SOL    HW212701   3.677   6.252   1.051  1.2786  2.3911 -1.1224
 3761SOL     OW12702   3.125   6.642   0.015 -0.0724  0.2832  0.5750
 3761SOL    HW112703   3.051   6.591  -0.017  0.6982 -0.0602 -0.6959
 3761SOL    HW212704   3.194   6.578   0.033  0.3669  0.7226  0.4895
 3762SOL     OW12705   1.202   6.472   3.419 -0.1883  0.1179  0.5040
 3762SOL    HW112706   1.164   6.555   3.391  0.3759 -0.4921 -2.4391
 3762SOL    HW212707   1.135   6.431   3.473 -0.8181  2.0656  1.2691
 3763SOL     OW12708   6.784   6.810   3.577 -0.6657 -0.3595  0.3159
 3763SOL    HW112709   6.852   6.747   3.553  2.1344  2.3659  0.4467
 3763SOL    HW212710   6.706   6.779   3.531  1.8832 -0.9198 -4.2581
 3764SOL     OW12711   1.528   5.127   6.044 -0.1333 -0.5865  0.5164
 3764SOL    HW112712   1.499   5.134   5.953  0.7418 -0.5817  0.2281
 3764SOL    HW212713   1.472   5.187   6.093  0.3285  0.4764 -0.2434
 3765SOL     OW12714   7.728   1.310   1.950  0.1274  0.3332  0.6434
 3765SOL    HW112715   7.700   1.270   1.868  1.4574  1.0259 -0.1819
 3765SOL    HW212716   7.684   1.259   2.018 -0.7552 -0.4464 -0.4802
 3766SOL     OW12717   7.042   6.425   5.977  0.3937 -0.2372  0.1237
 3766SOL    HW112718   7.122   6.470   5.950 -1.6984  2.0505 -2.9591
 3766SOL    HW212719   7.046   6.340   5.934  0.9494  0.0725 -0.4460
 3767SOL     OW12720   6.459   6.477   6.432 -0.3900  0.0571 -0.0032
 3767SOL    HW112721   6.443   6.559   6.479 -0.6791 -0.5871  1.0523
 3767SOL    HW212722   6.413   6.488   6.349  2.0071  2.1130 -1.1722
 3768SOL     OW12723   7.571   8.015   5.741  0.0785 -0.1418 -0.9037
 3768SOL    HW112724   7.501   8.032   5.678  0.3015  2.6227 -0.5106
 3768SOL    HW212725   7.652   8.031   5.692  0.2503  2.2204  0.0383
 3769SOL     OW12726   1.833   2.834   1.601  0.8751  0.4616  0.0715
 3769SOL    HW112727   1.793   2.921   1.611  2.2729  1.5719 -2.8859
 3769SOL    HW212728   1.779   2.789   1.537  0.4258 -0.7390  1.2465
 3770SOL     OW12729   0.250   7.354   3.102  0.3468 -0.4075  0.3937
 3770SOL    HW112730   0.223   7.264   3.085  2.2657 -1.0054  0.3414
 3770SOL    HW212731   0.171   7.397   3.135 -0.5576 -2.1497  0.5849
 3771SOL     OW12732   5.290   5.031   7.126  0.0421 -0.0924  0.2273
 3771SOL    HW112733   5.326   4.943   7.113  0.2658  0.2285 -1.6100
 3771SOL    HW212734   5.306   5.050   7.218  0.7267 -1.6525  0.4647
 3772SOL     OW12735   3.419   5.873   4.136 -0.6355  0.0474 -0.8027
 3772SOL    HW112736   3.380   5.883   4.223 -1.1052  2.3057 -1.1933
 3772SOL    HW212737   3.511   5.852   4.153 -0.6353  0.8191  0.2767
 3773SOL     OW12738   3.385   7.821   0.817 -0.2661 -0.0204  0.1641
 3773SOL    HW112739   3.395   7.874   0.738  0.4702 -0.6229 -0.1606
 3773SOL    HW212740   3.291   7.811   0.827 -0.4161  1.2480  0.1689
 3774SOL     OW12741   1.325   3.436   6.866  0.5349  0.5432 -0.7668
 3774SOL    HW112742   1.357   3.348   6.846 -0.4609  0.0343 -0.2395
 3774SOL    HW212743   1.238   3.421   6.904  1.0075  1.6255  0.8775
 3775SOL     OW12744   6.316   1.221   1.168  0.2132 -0.4479 -0.3881
 3775SOL    HW112745   6.395   1.245   1.215 -0.4478  1.8224 -0.3320
 3775SOL    HW212746   6.253   1.198   1.237 -0.2521  1.2854 -0.1962
 3776SOL     OW12747   7.624   5.748   3.294  0.0269 -0.3197 -0.1614
 3776SOL    HW112748   7.530   5.747   3.306 -0.4040 -1.1891 -2.8995
 3776SOL    HW212749   7.637   5.791   3.209  2.0617 -0.5256 -0.0142
 3777SOL     OW12750   6.490   6.948   2.931  0.1109  0.2246 -0.0137
 3777SOL    HW112751   6.401   6.953   2.896  0.2219  1.1495 -0.1962
 3777SOL    HW212752   6.546   6.938   2.855  0.2242  0.4731  0.0362
 3778SOL     OW12753   4.186   1.215   1.772  0.5986 -0.5262 -0.0341
 3778SOL    HW112754   4.275   1.201   1.804  1.7167  0.5441 -2.4682
 3778SOL    HW212755   4.196   1.270   1.695 -2.4275  2.5770  1.4754
 3779SOL     OW12756   4.353   5.955   5.402 -0.3384 -0.4602  0.5849
 3779SOL    HW112757   4.412   5.915   5.467 -0.9184 -1.7044  0.3664
 3779SOL    HW212758   4.335   6.042   5.438  1.5766 -0.0578  0.6815
 3780SOL     OW12759   1.530   3.917   5.112 -0.0200 -0.0372 -0.4049
 3780SOL    HW112760   1.455   3.948   5.163  0.5757 -1.3876  1.3853
 3780SOL    HW212761   1.604   3.923   5.172  0.8791 -0.8798 -1.3870
 3781SOL     OW12762   3.377   2.259   6.099 -0.5708  0.2037  0.5607
 3781SOL    HW112763   3.473   2.262   6.103 -0.3506 -0.0121 -2.2638
 3781SOL    HW212764   3.357   2.169   6.077 -1.4172  0.3213  0.8386
 3782SOL     OW12765   4.340   4.984   7.879 -0.1502  0.2718  0.3780
 3782SOL    HW112766   4.373   4.914   7.823 -0.7786  0.2209  0.0616
 3782SOL    HW212767   4.254   4.953   7.907 -0.0545  0.5260  0.9596
 3783SOL     OW12768   0.385   0.386   6.231 -0.2964  0.5050 -0.2166
 3783SOL    HW112769   0.367   0.375   6.138  0.2010  0.6006 -0.3294
 3783SOL    HW212770   0.318   0.448   6.261  0.2062  1.3413 -0.7564
 3784SOL     OW12771   3.767   2.429   4.613 -0.4536  0.0877  0.1263
 3784SOL    HW112772   3.683   2.422   4.567 -0.1495 -1.0396 -0.2931
 3784SOL    HW212773   3.764   2.515   4.655 -2.4188 -0.4776  1.2893
 3785SOL     OW12774   2.201   0.390   2.682 -0.2824 -0.7129 -0.2508
 3785SOL    HW112775   2.267   0.356   2.743 -1.7178 -0.9696  1.2549
 3785SOL    HW212776   2.159   0.311   2.646 -0.4574 -0.5569 -0.3937
 3786SOL     OW12777   2.150   6.657   7.583  0.4771 -0.7114  0.3178
 3786SOL    HW112778   2.145   6.679   7.490  2.0237 -0.9017  0.1607
 3786SOL    HW212779   2.112   6.732   7.627  2.7819  0.9691 -0.3512
 3787SOL     OW12780   3.017   0.562   2.681 -0.3206  0.6620  0.3372
 3787SOL    HW112781   3.062   0.483   2.711 -0.8873 -0.2934 -1.1528
 3787SOL    HW212782   3.074   0.597   2.613 -0.4460  1.0815  0.4499
 3788SOL     OW12783   4.726   7.763   5.477  0.3251 -0.7120  0.0809
 3788SOL    HW112784   4.793   7.698   5.455  0.4224 -0.0765 -1.6852
 3788SOL    HW212785   4.647   7.733   5.432  0.1272 -0.0964 -0.0027
 3789SOL     OW12786   6.110   2.867   4.069  0.2382 -0.0805  0.1856
 3789SOL    HW112787   6.118   2.941   4.009  1.2380  1.6089  2.3029
 3789SOL    HW212788   6.016   2.851   4.074  0.0804  0.2534 -1.1827
 3790SOL     OW12789   2.853   7.541   0.043  0.2419  0.1898  0.2570
 3790SOL    HW112790   2.891   7.624   0.071  1.6891 -0.9439  1.8048
 3790SOL    HW212791   2.928   7.489   0.016 -0.6365 -0.6914 -0.5397
 3791SOL     OW12792   0.347   5.828   3.100 -0.1225  0.5271  0.3992
 3791SOL    HW112793   0.344   5.773   3.178  0.8189  0.9106  0.7220
 3791SOL    HW212794   0.422   5.887   3.115  0.6171  0.0424 -1.1564
 3792SOL     OW12795   7.158   6.266   7.681  0.2028 -0.0065  0.2710
 3792SOL    HW112796   7.169   6.305   7.594  0.7957  0.3028  0.4807
 3792SOL    HW212797   7.100   6.192   7.667 -0.6582  0.7437 -0.1916
 3793SOL     OW12798   4.883   5.630   1.114  0.2846  0.2611  0.4389
 3793SOL    HW112799   4.931   5.616   1.196  1.0620 -2.4677 -0.3929
 3793SOL    HW212800   4.836   5.548   1.099 -0.4057  0.9457 -1.5260
 3794SOL     OW12801   0.054   7.019   6.737  0.0691  0.2425  0.1802
 3794SOL    HW112802   0.143   7.027   6.704  0.4278 -0.6319  0.8920
 3794SOL    HW212803   0.007   6.970   6.670  0.5102 -0.5554  0.4387
 3795SOL     OW12804   0.942   5.676   3.854 -0.6631 -0.4285  0.2220
 3795SOL    HW112805   0.862   5.653   3.901 -1.6007 -1.3659 -1.7489
 3795SOL    HW212806   0.945   5.616   3.780  1.4216  0.1685 -0.2451
 3796SOL     OW12807   7.888   4.145   0.090 -0.0346  0.4696  0.2080
 3796SOL    HW112808   7.842   4.148   0.174  0.9134 -0.5990  0.7859
 3796SOL    HW212809   7.867   4.059   0.054 -2.4506  1.7713 -1.8779
 3797SOL     OW12810   0.884   1.497   7.911 -0.1163 -0.4955 -0.1112
 3797SOL    HW112811   0.809   1.445   7.880 -1.1857  1.0166 -0.1828
 3797SOL    HW212812   0.961   1.444   7.889 -1.1734 -2.3638  0.4901
 3798SOL     OW12813   4.854   4.032   4.294 -0.8153 -0.0294 -0.1288
 3798SOL    HW112814   4.798   3.974   4.242 -0.1430 -0.8138 -0.0018
 3798SOL    HW212815   4.803   4.050   4.373 -0.9099 -0.7023 -0.0293
 3799SOL     OW12816   6.461   7.314   6.933  0.7438  0.8201  0.6456
 3799SOL    HW112817   6.398   7.318   7.005 -2.0470  0.9254 -1.6384
 3799SOL    HW212818   6.516   7.239   6.953  0.8015  1.4793  3.3749
 3800SOL     OW12819   4.632   2.363   7.064  0.2729  0.7113 -0.5368
 3800SOL    HW112820   4.621   2.390   6.972 -1.7998  1.1869 -0.2056
 3800SOL    HW212821   4.712   2.407   7.091  3.2721 -2.5769 -3.1452
 3801SOL     OW12822   2.513   7.687   4.017 -0.4119  0.6687 -0.1697
 3801SOL    HW112823   2.534   7.695   3.924  0.2511  0.9550 -0.0049
 3801SOL    HW212824   2.597   7.665   4.058 -0.8284 -0.0996  0.2848
 3802SOL     OW12825   6.020   1.400   4.526  0.3860 -0.0160  0.1017
 3802SOL    HW112826   6.076   1.323   4.523 -0.9325 -1.0618  0.9939
 3802SOL    HW212827   5.932   1.365   4.538 -0.2438  1.6329  0.5674
 3803SOL     OW12828   3.301   7.287   6.420  0.3532 -0.2880  0.2899
 3803SOL    HW112829   3.291   7.344   6.497 -1.8904 -2.0043  1.3965
 3803SOL    HW212830   3.294   7.198   6.455  0.2522 -1.1513 -1.8013
 3804SOL     OW12831   4.777   7.659   7.998 -0.0454 -0.0698 -0.3815
 3804SOL    HW112832   4.693   7.705   8.007  0.4800  0.4885  2.7097
 3804SOL    HW212833   4.842   7.724   8.022  1.1542 -1.0385 -0.9070
 3805SOL     OW12834   7.339   4.553   2.195 -0.1577  0.7366 -0.5129
 3805SOL    HW112835   7.382   4.574   2.278 -1.1389 -1.3115  0.5823
 3805SOL    HW212836   7.245   4.550   2.217 -0.2973 -1.5418 -1.2576
 3806SOL     OW12837   5.465   4.640   2.807  0.1675 -0.2866  0.2080
 3806SOL    HW112838   5.541   4.609   2.758 -0.7339 -1.4731 -0.5075
 3806SOL    HW212839   5.390   4.604   2.760 -0.8645  1.0442  0.7524
 3807SOL     OW12840   5.944   6.887   7.608  0.5042  0.5132  0.4879
 3807SOL    HW112841   5.916   6.799   7.629  2.1121  0.4021  2.4287
 3807SOL    HW212842   5.947   6.889   7.512 -2.1095 -0.6379  0.3092
 3808SOL     OW12843   3.683   7.071   2.704 -0.4688  0.0956  0.2579
 3808SOL    HW112844   3.647   7.041   2.621 -2.1957 -0.6886  1.2444
 3808SOL    HW212845   3.622   7.039   2.770  0.6277  1.0632  1.8129
 3809SOL     OW12846   0.244   6.920   5.590 -0.5640 -0.4780  0.3638
 3809SOL    HW112847   0.302   6.979   5.639  0.2922 -0.5826 -0.5004
 3809SOL    HW212848   0.229   6.846   5.649 -0.3412 -0.1541  0.8348
 3810SOL     OW12849   7.034   2.174   6.326  0.0098 -0.4028  0.0123
 3810SOL    HW112850   6.948   2.162   6.285  0.8787 -1.5302 -1.6119
 3810SOL    HW212851   7.032   2.118   6.403 -0.5140 -0.8830 -0.3402
 3811SOL     OW12852   0.872   7.043   4.267  0.7636 -0.3145  0.8353
 3811SOL    HW112853   0.891   7.041   4.173  0.2245 -0.3767  0.7245
 3811SOL    HW212854   0.871   7.136   4.290  0.7676 -0.2940  0.7512
 3812SOL     OW12855   7.229   2.884   3.951  0.3747 -0.1750  0.3585
 3812SOL    HW112856   7.301   2.835   3.992 -1.1548 -2.8379  0.1066
 3812SOL    HW212857   7.257   2.897   3.861  0.7750 -0.7622  0.3882
 3813SOL     OW12858   6.023   6.135   1.360  0.7157 -1.3373  0.1394
 3813SOL    HW112859   6.026   6.041   1.380  0.9573 -1.2225  0.6514
 3813SOL    HW212860   6.114   6.164   1.367  0.5571 -0.9415  0.5819
 3814SOL     OW12861   6.580   4.821   4.037 -0.1988 -0.0254  0.0956
 3814SOL    HW112862   6.543   4.853   4.120  1.2326 -0.5156  0.9552
 3814SOL    HW212863   6.588   4.900   3.983 -0.6152  0.3912  0.6253
 3815SOL     OW12864   3.442   6.944   4.131 -0.4249  0.5205  0.7431
 3815SOL    HW112865   3.491   6.907   4.058  0.3458  0.8665  1.0760
 3815SOL    HW212866   3.350   6.930   4.107 -0.1945  0.8297 -0.3994
 3816SOL     OW12867   4.831   2.924   6.120 -0.1251 -0.0676  0.5116
 3816SOL    HW112868   4.752   2.977   6.111  0.2567  0.5527  0.7679
 3816SOL    HW212869   4.808   2.859   6.186 -0.3408  0.2762  0.7833
 3817SOL     OW12870   4.229   0.356   2.152 -0.6185  0.1563 -0.6812
 3817SOL    HW112871   4.225   0.405   2.234 -0.1954  0.0412 -0.5901
 3817SOL    HW212872   4.284   0.280   2.172  1.6909  1.4375 -1.7205
 3818SOL     OW12873   6.923   7.873   2.086 -0.7174 -0.1353  0.5052
 3818SOL    HW112874   6.986   7.804   2.063 -0.3354  0.5756 -0.6612
 3818SOL    HW212875   6.866   7.832   2.151 -0.4974 -1.5540 -0.1465
 3819SOL     OW12876   2.401   0.706   6.484 -0.5071 -0.0319  0.0908
 3819SOL    HW112877   2.444   0.673   6.562  0.6954  2.8147  0.7594
 3819SOL    HW212878   2.308   0.712   6.508 -0.1607  0.7483  1.3080
 3820SOL     OW12879   6.535   3.984   7.435 -0.6009 -0.3000 -0.2526
 3820SOL    HW112880   6.445   4.013   7.451 -0.9206 -1.4880  0.2138
 3820SOL    HW212881   6.580   4.063   7.405 -1.1204  0.9990  2.1073
 3821SOL     OW12882   2.696   6.862   5.774 -0.2336  0.0723 -0.3915
 3821SOL    HW112883   2.786   6.864   5.740  0.3489 -2.5669  0.7128
 3821SOL    HW212884   2.649   6.805   5.713 -1.3059  1.6566 -1.1217
 3822SOL     OW12885   2.776   3.560   6.409  0.4946 -0.1296  0.2041
 3822SOL    HW112886   2.689   3.531   6.381  0.4036 -0.0043  0.3552
 3822SOL    HW212887   2.809   3.488   6.463  0.7997 -0.5104 -0.4723
 3823SOL     OW12888   7.073   4.557   2.254 -0.0745  0.2200 -0.3386
 3823SOL    HW112889   7.077   4.575   2.348 -1.1404 -0.6650 -0.1014
 3823SOL    HW212890   6.984   4.523   2.240  0.6168 -1.2596 -1.3636
 3824SOL     OW12891   3.514   5.939   7.412  0.1880  0.0050 -0.7926
 3824SOL    HW112892   3.532   5.904   7.499 -0.0146 -1.6934 -1.3953
 3824SOL    HW212893   3.589   5.995   7.392  0.9471 -0.7347 -0.0929
 3825SOL     OW12894   5.509   6.963   0.996 -0.1972  0.3163 -0.5392
 3825SOL    HW112895   5.431   6.909   0.983 -0.4654 -0.7936  4.1163
 3825SOL    HW212896   5.581   6.900   1.001  0.0734  0.7243  1.0617
 3826SOL     OW12897   0.057   7.539   4.436 -0.0776  0.1215 -0.6509
 3826SOL    HW112898   0.010   7.615   4.402  1.5437  1.7334  0.5735
 3826SOL    HW212899   0.140   7.538   4.388  0.9084  0.5722  0.9556
 3827SOL     OW12900   0.394   6.117   5.087 -0.2475  0.3467  0.0472
 3827SOL    HW112901   0.315   6.083   5.046 -0.1065  1.5331 -1.2997
 3827SOL    HW212902   0.459   6.048   5.075 -0.0686  0.8538 -2.2708
 3828SOL     OW12903   5.493   6.715   1.402 -0.0651  0.0335  0.1471
 3828SOL    HW112904   5.560   6.691   1.339 -0.1224 -1.6029  0.6669
 3828SOL    HW212905   5.481   6.637   1.456 -0.8809  0.9828  1.4152
 3829SOL     OW12906   4.379   4.972   3.667 -0.3815  0.0124  0.2065
 3829SOL    HW112907   4.416   5.060   3.664  0.4405 -0.3291  0.1700
 3829SOL    HW212908   4.297   4.979   3.618  0.1941  0.5094 -0.7046
 3830SOL     OW12909   7.986   5.276   5.880  0.1011 -0.9809 -0.9411
 3830SOL    HW112910   8.060   5.262   5.821 -0.1278 -1.3884 -1.1390
 3830SOL    HW212911   8.003   5.360   5.922  0.2182 -0.6399 -1.6673
 3831SOL     OW12912   4.706   3.834   3.524  0.1247 -0.0446 -0.0271
 3831SOL    HW112913   4.781   3.848   3.581  0.1913  0.7895 -0.3162
 3831SOL    HW212914   4.645   3.905   3.545 -0.6128 -0.7244  0.2282
 3832SOL     OW12915   7.252   7.532   2.237  0.5468 -0.2651  0.3919
 3832SOL    HW112916   7.264   7.612   2.186 -0.2487  0.0284  0.6603
 3832SOL    HW212917   7.338   7.490   2.235  0.3003 -0.8387 -2.1520
 3833SOL     OW12918   7.527   1.965   0.932 -0.0079  0.2878 -0.3292
 3833SOL    HW112919   7.551   2.053   0.963  0.4122  0.8172 -2.0397
 3833SOL    HW212920   7.469   1.982   0.857  1.2919 -0.8358 -1.6546
 3834SOL     OW12921   7.766   1.793   2.197 -0.5404 -0.1427  0.4943
 3834SOL    HW112922   7.710   1.715   2.203 -0.1140 -0.6747 -1.5901
 3834SOL    HW212923   7.733   1.840   2.121  1.0145  0.1872 -0.0170
 3835SOL     OW12924   1.581   3.252   7.390  0.7054  0.2580 -0.0055
 3835SOL    HW112925   1.486   3.257   7.382  0.8273  0.0844 -2.1652
 3835SOL    HW212926   1.596   3.191   7.463 -0.8087  0.6524  0.6674
 3836SOL     OW12927   5.934   4.394   2.783  0.0512 -0.0017 -0.1712
 3836SOL    HW112928   5.900   4.459   2.845  1.4313 -0.2934  0.9464
 3836SOL    HW212929   5.863   4.330   2.775  0.1374 -0.4198  1.8235
 3837SOL     OW12930   7.458   0.184   1.403 -0.0959  0.1898 -0.0846
 3837SOL    HW112931   7.463   0.170   1.308  0.4852  1.1813 -0.2077
 3837SOL    HW212932   7.367   0.162   1.425 -0.6770  1.4084 -1.1247
 3838SOL     OW12933   2.693   4.274   7.886  0.1935  0.1996  0.1678
 3838SOL    HW112934   2.725   4.218   7.816 -1.4090  0.4707 -0.8334
 3838SOL    HW212935   2.637   4.338   7.842 -0.2994  0.8083  1.6163
 3839SOL     OW12936   7.965   4.536   4.248 -0.3252 -0.1158 -0.4102
 3839SOL    HW112937   7.913   4.465   4.285 -1.6302  1.1033  0.1877
 3839SOL    HW212938   8.051   4.497   4.230 -1.3483 -2.1379 -1.2169
 3840SOL     OW12939   2.159   6.422   1.157  0.2851  0.2106 -0.0075
 3840SOL    HW112940   2.077   6.426   1.207 -1.0356 -1.9342 -1.8003
 3840SOL    HW212941   2.226   6.405   1.223 -1.0264 -0.0662  1.3108
 3841SOL     OW12942   4.699   1.574   4.188 -0.0979 -0.4431 -0.2136
 3841SOL    HW112943   4.760   1.643   4.162  0.3732 -1.3177 -1.5109
 3841SOL    HW212944   4.666   1.602   4.274  3.2282 -0.6074  1.2712
 3842SOL     OW12945   0.995   6.267   5.491  0.1046  0.0830  0.3925
 3842SOL    HW112946   0.997   6.212   5.413  1.7510  1.3266 -0.5021
 3842SOL    HW212947   1.071   6.240   5.542  0.9366  1.4580 -0.0592
 3843SOL     OW12948   5.959   3.588   0.109 -0.0853 -0.1777  0.3912
 3843SOL    HW112949   6.021   3.533   0.158 -1.0959 -0.4760  1.3680
 3843SOL    HW212950   5.942   3.662   0.167  0.1397  0.4310 -0.3070
 3844SOL     OW12951   0.146   1.037   3.727  0.0593  0.2705  0.3609
 3844SOL    HW112952   0.102   0.952   3.719  0.2564  0.0188  1.6412
 3844SOL    HW212953   0.193   1.048   3.645 -1.8780  0.2619 -0.7937
 3845SOL     OW12954   1.132   5.391   2.329 -0.0893 -0.4021 -0.0859
 3845SOL    HW112955   1.155   5.317   2.386  0.8013  1.1649  1.6998
 3845SOL    HW212956   1.049   5.366   2.290  0.1239 -2.2987  0.5419
 3846SOL     OW12957   7.947   3.293   3.180  0.6961 -0.4963 -0.0951
 3846SOL    HW112958   8.006   3.273   3.107  1.3286  0.3674  0.1610
 3846SOL    HW212959   7.937   3.210   3.227  2.1968 -0.5389  0.2035
 3847SOL     OW12960   5.992   1.433   5.541  0.5714 -0.0623 -0.0934
 3847SOL    HW112961   6.087   1.429   5.532  0.9390  1.4701  2.1528
 3847SOL    HW212962   5.970   1.360   5.599  0.5998  0.4873  0.6184
 3848SOL     OW12963   3.030   5.266   1.466 -0.4507 -0.0098  0.3316
 3848SOL    HW112964   2.985   5.283   1.383 -0.3203 -0.0417  0.2553
 3848SOL    HW212965   3.099   5.332   1.470  0.9013 -1.2886 -0.5765
 3849SOL     OW12966   3.855   4.053   2.306  0.2942  0.1202 -0.4718
 3849SOL    HW112967   3.881   4.135   2.349 -0.7138  0.2777 -0.1227
 3849SOL    HW212968   3.830   4.079   2.218 -1.6173  0.4941  0.1322
 3850SOL     OW12969   6.901   6.900   1.670 -0.5875 -0.3932  0.2584
 3850SOL    HW112970   6.822   6.849   1.689 -2.1186  0.9376 -1.9909
 3850SOL    HW212971   6.931   6.865   1.586  0.0706  0.4353  0.1438
 3851SOL     OW12972   2.612   7.434   6.545 -0.1112 -0.4345  0.6987
 3851SOL    HW112973   2.649   7.414   6.459 -1.2335  3.0128 -0.7753
 3851SOL    HW212974   2.518   7.426   6.534 -0.2982  0.4756  1.4337
 3852SOL     OW12975   6.303   5.232   6.785 -0.3423  0.4700  0.4167
 3852SOL    HW112976   6.396   5.232   6.763 -1.0826 -0.2635 -3.4564
 3852SOL    HW212977   6.279   5.139   6.787 -1.1488  0.6668  0.4116
 3853SOL     OW12978   6.176   1.200   2.652 -0.3565 -0.0592  0.1665
 3853SOL    HW112979   6.155   1.168   2.740  0.8225  0.3308  0.6158
 3853SOL    HW212980   6.108   1.163   2.596  0.5958 -3.0165  0.7317
 3854SOL     OW12981   5.467   4.522   1.068  0.0211  0.4326  0.2202
 3854SOL    HW112982   5.535   4.490   1.009  0.2447 -0.8057  1.0889
 3854SOL    HW212983   5.514   4.577   1.131  0.3127 -0.6482  0.9894
 3855SOL     OW12984   1.884   2.820   7.957  0.2823  0.1005  0.1146
 3855SOL    HW112985   1.943   2.833   8.031 -0.8796  0.0723  1.0683
 3855SOL    HW212986   1.936   2.771   7.893  0.9228 -1.0348  1.4435
 3856SOL     OW12987   0.910   6.654   3.071 -0.5342 -0.2132  0.2240
 3856SOL    HW112988   0.915   6.710   2.993  0.6515 -0.4422  0.1147
 3856SOL    HW212989   0.817   6.643   3.087 -0.8026  2.1927  0.5438
 3857SOL     OW12990   7.309   4.185   7.135  0.5545 -0.6667  0.1472
 3857SOL    HW112991   7.372   4.222   7.198 -2.0430  1.7138  1.5872
 3857SOL    HW212992   7.266   4.115   7.184 -0.5176  0.2724  0.5826
 3858SOL     OW12993   6.445   3.146   6.585 -0.4506  0.4710 -0.1909
 3858SOL    HW112994   6.424   3.075   6.645  1.3553 -0.2968 -0.3755
 3858SOL    HW212995   6.429   3.226   6.635  0.6011 -0.1390  1.2015
 3859SOL     OW12996   3.206   3.675   3.456 -0.0427  0.0551  0.2571
 3859SOL    HW112997   3.248   3.715   3.532  1.5929 -1.3720  0.1624
 3859SOL    HW212998   3.269   3.687   3.385 -0.1201 -1.4442 -0.0925
 3860SOL     OW12999   7.189   0.318   2.787  0.3848  0.0079 -0.4502
 3860SOL    HW113000   7.202   0.399   2.737 -0.0987  0.7098  0.5114
 3860SOL    HW213001   7.225   0.249   2.732  0.4635  0.8351 -1.4627
 3861SOL     OW13002   1.654   4.930   7.661 -0.2799  0.3225  0.7128
 3861SOL    HW113003   1.637   4.845   7.620  0.4171 -0.4054  1.8886
 3861SOL    HW213004   1.589   4.989   7.621 -1.5002 -0.9961  0.6687
 3862SOL     OW13005   4.700   0.154   6.721 -0.1766  0.4095 -0.3353
 3862SOL    HW113006   4.630   0.090   6.718 -1.2889  1.6019 -0.5101
 3862SOL    HW213007   4.721   0.163   6.814  0.6552 -0.8792 -0.3733
 3863SOL     OW13008   7.392   7.105   0.600 -0.2585  0.3677 -0.1192
 3863SOL    HW113009   7.434   7.134   0.681  1.1075 -1.2103 -0.2063
 3863SOL    HW213010   7.380   7.186   0.550  0.6429  1.1496  0.8529
 3864SOL     OW13011   4.549   2.532   8.052 -0.2538 -0.2122  0.2270
 3864SOL    HW113012   4.626   2.512   7.999  0.3667  0.1580  0.9698
 3864SOL    HW213013   4.487   2.463   8.031  0.1622 -0.3474 -0.6079
 3865SOL     OW13014   3.689   4.276   3.504 -0.2801 -0.4241 -0.1304
 3865SOL    HW113015   3.594   4.285   3.507 -0.2018  0.9628 -0.7259
 3865SOL    HW213016   3.710   4.274   3.410  0.3040 -0.4280 -0.0064
 3866SOL     OW13017   5.624   5.068   0.300 -0.3348  0.0212 -0.1796
 3866SOL    HW113018   5.629   5.030   0.213 -1.7163  1.4205 -0.9355
 3866SOL    HW213019   5.699   5.127   0.305 -0.1807 -0.1581 -0.3650
 3867SOL     OW13020   2.888   0.791   4.321 -0.2191 -0.3391  0.3331
 3867SOL    HW113021   2.982   0.792   4.337 -0.4747 -1.5627  2.1038
 3867SOL    HW213022   2.874   0.712   4.268 -0.2562 -0.1311  0.0289
 3868SOL     OW13023   3.611   1.116   2.837 -0.0586  0.1925  0.2752
 3868SOL    HW113024   3.574   1.072   2.914 -0.6918 -0.7076 -0.5190
 3868SOL    HW213025   3.535   1.136   2.783  0.5564 -3.2967 -2.2552
 3869SOL     OW13026   4.066   7.763   0.719 -0.2166 -0.1294 -0.1677
 3869SOL    HW113027   3.976   7.783   0.693 -0.4985 -0.6341  0.3842
 3869SOL    HW213028   4.087   7.830   0.784  0.2405  0.7071 -1.1446
 3870SOL     OW13029   8.005   8.039   2.381 -0.5474 -0.4717 -0.1036
 3870SOL    HW113030   7.935   8.010   2.439 -1.0255 -0.5149 -0.6898
 3870SOL    HW213031   8.045   7.958   2.350 -2.1634 -0.5887 -2.0822
 3871SOL     OW13032   4.464   2.970   4.252 -0.2353  0.3233  0.3855
 3871SOL    HW113033   4.496   2.887   4.217  2.2113  0.5026  1.9648
 3871SOL    HW213034   4.489   3.035   4.186 -2.0096 -0.0863 -0.7747
 3872SOL     OW13035   6.204   0.998   2.854 -0.1933  0.6002 -0.2655
 3872SOL    HW113036   6.168   1.060   2.917  0.4199  1.5523 -0.8233
 3872SOL    HW213037   6.295   0.988   2.879  0.4148  1.9921 -1.7076
 3873SOL     OW13038   1.661   4.811   5.333  0.0727 -0.6718 -0.3612
 3873SOL    HW113039   1.690   4.722   5.355  0.8476 -0.2960  0.1885
 3873SOL    HW213040   1.723   4.868   5.378 -0.0747  0.1506 -1.1674
 3874SOL     OW13041   2.702   1.117   5.485  0.0824  0.3361 -0.6363
 3874SOL    HW113042   2.710   1.036   5.434  1.9009  1.1078 -1.6540
 3874SOL    HW213043   2.624   1.159   5.451  0.6785  0.3241 -2.0749
 3875SOL     OW13044   5.720   2.230   4.002  0.2352 -0.4110  0.2388
 3875SOL    HW113045   5.629   2.198   4.006 -0.2388  0.6166 -1.5142
 3875SOL    HW213046   5.713   2.319   3.970  1.9074 -0.4278 -0.2517
 3876SOL     OW13047   6.634   2.299   0.415 -0.1040 -0.0685 -0.8627
 3876SOL    HW113048   6.673   2.282   0.329 -0.7775 -1.3179 -0.9426
 3876SOL    HW213049   6.690   2.366   0.454  1.3988 -0.9496 -1.4409
 3877SOL     OW13050   2.871   4.534   4.701  0.5215  0.2344 -0.2491
 3877SOL    HW113051   2.803   4.469   4.684  0.8197 -0.0369 -0.4199
 3877SOL    HW213052   2.826   4.618   4.694  0.1557  0.0521 -0.1318
 3878SOL     OW13053   4.876   5.862   0.619  0.4449  0.7101  0.1292
 3878SOL    HW113054   4.843   5.789   0.672  1.1530  1.5724  1.8238
 3878SOL    HW213055   4.852   5.838   0.529 -2.0727 -0.1407  0.9197
 3879SOL     OW13056   5.028   3.717   4.399  0.4384  0.0018  0.4282
 3879SOL    HW113057   4.936   3.734   4.417  1.0257  1.7674  2.2174
 3879SOL    HW213058   5.036   3.726   4.304 -1.3075 -0.8840  0.1469
 3880SOL     OW13059   0.370   2.138   7.748 -0.5812  0.4376  0.4055
 3880SOL    HW113060   0.419   2.210   7.788 -0.1595  1.3549 -1.5863
 3880SOL    HW213061   0.278   2.158   7.769 -0.3103  0.0751  2.0667
 3881SOL     OW13062   6.166   5.925   4.624  0.3269  0.1440  0.2189
 3881SOL    HW113063   6.251   5.969   4.613  0.1054  0.5148 -0.0318
 3881SOL    HW213064   6.107   5.995   4.652 -1.0397  1.0329 -4.0890
 3882SOL     OW13065   5.727   8.058   3.340  0.4473  0.0623  0.0854
 3882SOL    HW113066   5.731   8.151   3.361  1.7552  0.0437  0.0410
 3882SOL    HW213067   5.808   8.022   3.377  0.5840 -0.8182 -1.0206
 3883SOL     OW13068   3.513   3.532   7.405  0.3042  0.0895 -0.4263
 3883SOL    HW113069   3.470   3.451   7.434 -0.7406  0.2907 -1.3545
 3883SOL    HW213070   3.445   3.579   7.357  0.8948  1.5316  0.0903
 3884SOL     OW13071   3.999   4.203   4.285 -0.0733 -0.2623 -0.2337
 3884SOL    HW113072   4.029   4.116   4.259 -0.5496 -0.9007  1.2546
 3884SOL    HW213073   3.939   4.230   4.215  0.3138 -0.9957 -0.8599
 3885SOL     OW13074   3.724   7.643   5.417  0.2258 -0.2929 -0.3062
 3885SOL    HW113075   3.716   7.698   5.339  0.2097  0.5997  0.3120
 3885SOL    HW213076   3.712   7.554   5.384 -0.5200  0.1200 -1.2030
 3886SOL     OW13077   5.077   7.739   6.820  0.0638 -0.2449  0.0503
 3886SOL    HW113078   5.065   7.716   6.913  1.3815  0.4000  0.4091
 3886SOL    HW213079   5.172   7.746   6.810  0.1503 -2.9252 -2.0221
 3887SOL     OW13080   6.989   4.532   7.536 -1.3389  0.4960 -0.1569
 3887SOL    HW113081   7.081   4.547   7.515 -0.7956  0.2607  1.8429
 3887SOL    HW213082   6.942   4.565   7.460  0.4371 -0.6271 -1.8361
 3888SOL     OW13083   1.119   2.816   1.813 -0.2510  0.1926  0.3210
 3888SOL    HW113084   1.035   2.843   1.849 -0.6034 -0.1656 -0.2148
 3888SOL    HW213085   1.107   2.723   1.791 -0.7430  0.8529 -2.6152
 3889SOL     OW13086   1.472   5.307   7.767 -0.2518 -0.3916  0.1322
 3889SOL    HW113087   1.410   5.240   7.741  0.3058 -0.2314 -1.8021
 3889SOL    HW213088   1.441   5.387   7.724  0.9729 -0.2037 -0.4713
 3890SOL     OW13089   5.168   2.558   2.874 -0.0650 -0.1982  0.2626
 3890SOL    HW113090   5.103   2.518   2.816 -0.8140  0.3551  0.6906
 3890SOL    HW213091   5.118   2.623   2.923  0.9413  0.6348  0.2081
 3891SOL     OW13092   3.852   5.552   4.700  0.0410  0.0133 -0.2597
 3891SOL    HW113093   3.777   5.611   4.694 -0.7718 -0.6769  2.0316
 3891SOL    HW213094   3.871   5.529   4.609 -1.2374  1.7694 -1.0397
 3892SOL     OW13095   0.851   1.265   2.777  0.0939  0.0127 -0.2538
 3892SOL    HW113096   0.928   1.229   2.735 -1.3014 -0.4560 -2.5934
 3892SOL    HW213097   0.792   1.191   2.789  0.2476  0.2062  2.2557
 3893SOL     OW13098   1.581   2.628   2.352  0.1698 -0.2960  0.4950
 3893SOL    HW113099   1.664   2.663   2.385 -1.2147  1.3849  2.4542
 3893SOL    HW213100   1.582   2.536   2.379  0.7840  0.0743  1.8431
 3894SOL     OW13101   3.473   5.475   1.606 -0.3892  0.2027 -0.4233
 3894SOL    HW113102   3.452   5.467   1.699 -0.0487  0.2988 -0.3390
 3894SOL    HW213103   3.491   5.568   1.593 -1.7932  0.4510 -0.8751
 3895SOL     OW13104   3.540   7.950   4.393  0.1754  0.1680 -0.1161
 3895SOL    HW113105   3.449   7.940   4.423 -0.2924 -0.2261 -1.6083
 3895SOL    HW213106   3.589   7.967   4.474 -1.0886 -0.4673  0.8348
 3896SOL     OW13107   2.619   4.570   3.640 -0.0995  0.1859  0.1848
 3896SOL    HW113108   2.693   4.511   3.649 -0.5263 -0.4553 -0.3267
 3896SOL    HW213109   2.636   4.616   3.558  0.3043  0.8834  0.6573
 3897SOL     OW13110   3.806   7.653   4.072 -0.1326  0.1970  0.2022
 3897SOL    HW113111   3.804   7.558   4.075  2.0542  0.0425 -1.0786
 3897SOL    HW213112   3.754   7.681   4.147  0.2035 -2.0152  1.3332
 3898SOL     OW13113   5.148   7.812   4.057 -0.9778  0.2939 -0.3099
 3898SOL    HW113114   5.085   7.758   4.105  0.4597 -1.5238 -0.3386
 3898SOL    HW213115   5.191   7.865   4.125 -0.3136 -0.8489  0.1996
 3899SOL     OW13116   3.114   5.216   2.808 -0.0397  0.2639 -0.4410
 3899SOL    HW113117   3.124   5.260   2.723  0.0379  0.4731 -0.3231
 3899SOL    HW213118   3.050   5.270   2.855 -0.5223 -0.1770 -0.5887
 3900SOL     OW13119   1.406   1.625   0.435 -0.0249 -0.0639  0.2415
 3900SOL    HW113120   1.480   1.684   0.445  1.3846 -1.5304 -1.1383
 3900SOL    HW213121   1.360   1.657   0.357  1.3995 -1.3768 -1.2067
 3901SOL     OW13122   2.117   0.148   2.568  0.0193 -0.2198  0.3917
 3901SOL    HW113123   2.176   0.144   2.492 -1.0005 -1.8801 -0.3742
 3901SOL    HW213124   2.033   0.175   2.531 -0.4029 -0.6911  0.9977
 3902SOL     OW13125   2.352   0.565   4.260  0.1494  0.2104  0.2556
 3902SOL    HW113126   2.316   0.561   4.349 -4.0508  1.2153 -1.1436
 3902SOL    HW213127   2.376   0.475   4.240 -0.6997 -0.3972  1.7646
 3903SOL     OW13128   3.401   3.753   4.544 -0.1376  0.1559  0.1807
 3903SOL    HW113129   3.487   3.726   4.511 -0.2408 -1.7082  1.2884
 3903SOL    HW213130   3.378   3.829   4.491  1.4865 -0.2604 -1.2252
 3904SOL     OW13131   6.612   1.440   7.569  0.4132 -0.1795 -0.6981
 3904SOL    HW113132   6.569   1.506   7.623  3.7317  0.3055  1.6263
 3904SOL    HW213133   6.581   1.357   7.603 -0.8049  0.1133 -1.0311
 3905SOL     OW13134   0.004   4.275   7.967  0.1625 -0.0407  0.2146
 3905SOL    HW113135  -0.012   4.293   7.874 -1.0108  2.8277  0.8762
 3905SOL    HW213136  -0.079   4.242   8.000  0.0438  0.5853  0.5663
 3906SOL     OW13137   1.568   3.695   2.985  0.2950  0.4416 -0.0494
 3906SOL    HW113138   1.588   3.739   3.067  0.6093 -2.8928  1.8484
 3906SOL    HW213139   1.478   3.664   2.995  0.8587 -1.3977 -0.1564
 3907SOL     OW13140   1.208   2.669   4.530  0.0877 -1.0074 -0.0509
 3907SOL    HW113141   1.153   2.603   4.572 -0.9495 -0.3335 -0.2951
 3907SOL    HW213142   1.147   2.721   4.477  0.6450  0.8962  1.0564
 3908SOL     OW13143   1.527   7.091   3.690 -0.5033  0.2426  0.3191
 3908SOL    HW113144   1.443   7.050   3.713 -0.7610 -0.0040 -0.9808
 3908SOL    HW213145   1.508   7.185   3.688 -0.0913  0.4406  2.5665
 3909SOL     OW13146   7.820   2.900   3.206  0.8192  0.2657  0.3367
 3909SOL    HW113147   7.856   2.897   3.117  0.3773  1.9454  0.0647
 3909SOL    HW213148   7.770   2.981   3.209  0.8055  0.2382  2.1319
 3910SOL     OW13149   5.751   3.197   1.384 -0.1405 -0.9865  0.6625
 3910SOL    HW113150   5.805   3.272   1.357 -0.5487 -0.5381  1.0872
 3910SOL    HW213151   5.663   3.220   1.354 -0.5102 -0.7060  1.9362
 3911SOL     OW13152   6.596   1.237   4.110  0.0745 -0.4874 -0.1448
 3911SOL    HW113153   6.609   1.324   4.074  1.7010 -0.8018 -0.4182
 3911SOL    HW213154   6.506   1.214   4.087 -0.6965  1.4416  0.7029
 3912SOL     OW13155   2.075   7.602   1.969 -0.2324 -0.1672  0.0612
 3912SOL    HW113156   2.122   7.554   1.902 -0.9698  0.6403 -1.0763
 3912SOL    HW213157   2.123   7.685   1.978 -0.6841  0.1216 -0.1621
 3913SOL     OW13158   6.242   7.100   0.014 -0.0575 -0.2860 -0.6380
 3913SOL    HW113159   6.295   7.046   0.073  0.6560  1.3692  0.2957
 3913SOL    HW213160   6.288   7.097  -0.070 -0.1318 -1.2487 -0.6530
 3914SOL     OW13161   0.569   5.297   2.996 -0.0198 -0.4723  0.1558
 3914SOL    HW113162   0.583   5.390   2.976  0.0704 -0.5114  0.0348
 3914SOL    HW213163   0.521   5.297   3.079 -0.2363 -0.3107  0.0322
 3915SOL     OW13164   0.401   1.397   4.236 -0.2955  0.0900  0.5287
 3915SOL    HW113165   0.435   1.357   4.156  0.8097  1.1652  0.4325
 3915SOL    HW213166   0.466   1.378   4.303 -1.1037 -0.6044  1.1511
 3916SOL     OW13167   2.587   6.586   2.529 -0.1661 -0.1428  0.1760
 3916SOL    HW113168   2.523   6.612   2.463 -0.4731 -0.1525  0.4658
 3916SOL    HW213169   2.583   6.491   2.530  0.1786 -0.1602 -0.1238
 3917SOL     OW13170   2.714   6.007   7.607 -0.5959  0.0369  0.3539
 3917SOL    HW113171   2.720   5.912   7.596  1.8426  0.3408 -1.9028
 3917SOL    HW213172   2.804   6.034   7.629 -0.8369  1.9626 -0.8174
 3918SOL     OW13173   4.293   1.153   0.138  0.8599  0.1691 -0.4446
 3918SOL    HW113174   4.367   1.101   0.171  0.2215  0.5649  1.7883
 3918SOL    HW213175   4.267   1.208   0.213  0.2660  2.3042 -2.1180
 3919SOL     OW13176   5.287   2.196   0.124 -0.2728  0.1197 -0.1922
 3919SOL    HW113177   5.207   2.218   0.076  0.6830 -1.4842 -2.6968
 3919SOL    HW213178   5.284   2.101   0.133 -0.2360  0.2927  2.8196
 3920SOL     OW13179   6.791   0.605   0.578 -0.1904 -0.1411 -0.4198
 3920SOL    HW113180   6.769   0.616   0.486  0.9822 -1.4928 -0.9062
 3920SOL    HW213181   6.710   0.625   0.625 -1.2419 -0.9228 -1.8317
 3921SOL     OW13182   3.212   3.286   3.876  0.4341 -0.1913  0.3035
 3921SOL    HW113183   3.302   3.290   3.844  0.2515 -1.3586 -0.4475
 3921SOL    HW213184   3.217   3.232   3.955  0.2729 -1.1168 -0.3024
 3922SOL     OW13185   0.749   1.146   7.268  0.3477  0.0729 -0.0764
 3922SOL    HW113186   0.762   1.127   7.176 -2.9282 -0.4204 -0.5532
 3922SOL    HW213187   0.693   1.223   7.270 -0.9962 -0.8677  1.4154
 3923SOL     OW13188   3.066   3.073   4.914  0.1875  0.1829 -0.1890
 3923SOL    HW113189   3.060   3.104   4.824  0.9405 -0.2729 -0.4074
 3923SOL    HW213190   3.149   3.109   4.946  1.5796 -2.3190 -0.7584
 3924SOL     OW13191   5.889   6.081   4.164 -0.3327  0.3728  0.5179
 3924SOL    HW113192   5.816   6.136   4.133  0.6457  0.7416 -1.3116
 3924SOL    HW213193   5.851   5.994   4.174 -0.5277 -0.1735 -3.3523
 3925SOL     OW13194   2.145   5.677   8.023  0.0651  0.1703 -0.2314
 3925SOL    HW113195   2.143   5.585   8.050  2.8431  0.0311 -0.2583
 3925SOL    HW213196   2.100   5.677   7.938 -1.5971 -0.7963  0.6070
 3926SOL     OW13197   4.659   7.058   4.434  0.0758 -0.1721  0.1032
 3926SOL    HW113198   4.609   7.077   4.355  0.9362  0.8986 -0.1995
 3926SOL    HW213199   4.732   7.004   4.405  0.8402  0.8869  0.0197
 3927SOL     OW13200   7.775   4.057   7.235  0.7306  0.0730 -0.0504
 3927SOL    HW113201   7.696   4.007   7.255  0.8759 -0.4091 -0.6520
 3927SOL    HW213202   7.742   4.140   7.198  0.4484  1.1028  2.3558
 3928SOL     OW13203   1.475   0.452   2.640 -0.3956  0.3142  0.3971
 3928SOL    HW113204   1.547   0.505   2.607  0.6624 -0.0613  2.0034
 3928SOL    HW213205   1.405   0.515   2.656 -0.7746  0.5837 -1.9137
 3929SOL     OW13206   2.634   5.747   1.076  0.2408  0.1418 -0.2629
 3929SOL    HW113207   2.626   5.711   0.988 -0.7406  0.2806 -0.2509
 3929SOL    HW213208   2.618   5.672   1.133 -2.5984  0.6564 -0.2380
 3930SOL     OW13209   7.256   1.034   7.753 -0.6373 -0.0704 -0.0302
 3930SOL    HW113210   7.228   0.943   7.745  0.0206 -0.1479 -1.9212
 3930SOL    HW213211   7.174   1.084   7.749 -0.9660 -0.5565  0.5209
 3931SOL     OW13212   5.912   2.879   7.102 -0.2720 -0.1559  0.3547
 3931SOL    HW113213   5.877   2.848   7.018  1.6217  0.3109 -0.6631
 3931SOL    HW213214   6.007   2.874   7.091  0.0111  0.3549  2.3316
 3932SOL     OW13215   6.827   4.196   0.480 -0.1473  0.0331 -0.1337
 3932SOL    HW113216   6.885   4.259   0.523  1.0440  0.6461 -2.4828
 3932SOL    HW213217   6.750   4.248   0.454 -0.5606 -0.1895  0.6136
 3933SOL     OW13218   3.428   2.730   6.101 -0.2960  0.2856  0.6035
 3933SOL    HW113219   3.379   2.720   6.019  0.9476  3.0285 -0.5999
 3933SOL    HW213220   3.363   2.757   6.165 -1.0304 -0.3694  0.1617
 3934SOL     OW13221   1.194   7.230   1.547  1.1235 -0.2175 -0.1805
 3934SOL    HW113222   1.151   7.153   1.585  0.9120  0.1241  0.2759
 3934SOL    HW213223   1.220   7.201   1.460 -2.4689  0.3740 -1.6262
 3935SOL     OW13224   5.473   6.647   3.831 -0.0345 -0.5671  0.1880
 3935SOL    HW113225   5.566   6.652   3.855  0.3958 -1.0457 -1.2470
 3935SOL    HW213226   5.447   6.559   3.856  0.0745 -0.6462  0.0255
 3936SOL     OW13227   2.140   7.935   7.599  0.5196  0.2152  0.4661
 3936SOL    HW113228   2.091   7.898   7.526  0.3097  0.3378  0.5443
 3936SOL    HW213229   2.167   7.858   7.650  1.6529  0.0506 -0.3508
 3937SOL     OW13230   6.258   4.911   0.075 -0.4644  0.1519 -0.4002
 3937SOL    HW113231   6.328   4.897   0.011 -1.2727  1.3336 -1.5933
 3937SOL    HW213232   6.268   5.002   0.103 -1.2541  0.2047 -0.2660
 3938SOL     OW13233   5.739   4.808   6.109  0.3758  0.0939 -0.3744
 3938SOL    HW113234   5.698   4.851   6.184  1.8662  1.9424 -0.5564
 3938SOL    HW213235   5.814   4.761   6.147  1.5692  1.6333 -0.7449
 3939SOL     OW13236   4.700   6.268   6.993  0.4081  0.8082 -0.0659
 3939SOL    HW113237   4.631   6.203   7.002  0.5846  0.6071 -0.1546
 3939SOL    HW213238   4.769   6.223   6.944 -0.2926  1.6701 -1.9778
 3940SOL     OW13239   5.669   3.273   5.912  0.1036 -0.7994 -0.5851
 3940SOL    HW113240   5.620   3.255   5.831  0.9445 -0.1852 -1.2514
 3940SOL    HW213241   5.709   3.359   5.896  1.6431 -1.4220 -0.1903
 3941SOL     OW13242   6.745   6.300   2.751 -0.9673 -0.0303  0.3827
 3941SOL    HW113243   6.803   6.256   2.814 -1.1458 -3.6630 -1.7111
 3941SOL    HW213244   6.800   6.367   2.711  0.3796 -0.3759  1.5595
 3942SOL     OW13245   3.672   7.219   4.596 -0.0034  0.3173  0.1978
 3942SOL    HW113246   3.761   7.185   4.591 -0.0673 -0.9818  4.3073
 3942SOL    HW213247   3.677   7.291   4.659 -1.5438  1.9010 -1.3414
 3943SOL     OW13248   7.416   5.473   4.176  0.4546 -0.0969  0.3709
 3943SOL    HW113249   7.362   5.552   4.178  0.6667  0.1416 -1.5394
 3943SOL    HW213250   7.500   5.501   4.214  0.9248  0.9616 -1.3385
 3944SOL     OW13251   6.849   2.882   3.495 -0.2181  1.2616 -0.1298
 3944SOL    HW113252   6.899   2.900   3.575  1.9056  0.4566 -1.1911
 3944SOL    HW213253   6.758   2.901   3.519  0.1403 -0.1243  2.8416
 3945SOL     OW13254   3.109   1.302   1.915  0.7292  0.3240  0.1508
 3945SOL    HW113255   3.204   1.296   1.901  0.4292  0.9526 -2.5875
 3945SOL    HW213256   3.071   1.252   1.843 -1.0396  2.8913 -0.8236
 3946SOL     OW13257   0.887   4.142   1.710 -0.1541  0.1375 -0.7915
 3946SOL    HW113258   0.846   4.058   1.687 -1.6948  0.7620 -0.4536
 3946SOL    HW213259   0.853   4.204   1.645  0.1978  0.6893 -0.4563
 3947SOL     OW13260   5.698   2.367   3.344  0.3802 -0.2174 -0.6822
 3947SOL    HW113261   5.621   2.329   3.302 -1.5112  0.9216  1.5756
 3947SOL    HW213262   5.732   2.297   3.400  1.1782 -0.7807 -1.8163
 3948SOL     OW13263   2.729   7.419   4.533 -0.0084 -0.1109 -0.0797
 3948SOL    HW113264   2.793   7.352   4.510  1.0892  1.2941 -1.3107
 3948SOL    HW213265   2.766   7.462   4.610  0.3688  0.4691 -0.5786
 3949SOL     OW13266   5.366   6.733   0.538 -0.4697  0.8199  0.3508
 3949SOL    HW113267   5.348   6.819   0.498 -4.0625  0.4019  0.7512
 3949SOL    HW213268   5.415   6.686   0.471 -1.0735  2.1643 -1.1029
 3950SOL     OW13269   7.758   1.935   7.992 -0.1900 -0.6198 -0.3581
 3950SOL    HW113270   7.671   1.902   8.013 -0.3142 -0.9464 -1.2970
 3950SOL    HW213271   7.748   2.030   7.989 -0.2994 -0.6040  0.4279
 3951SOL     OW13272   4.774   0.860   6.185 -0.0603 -0.2766  0.0818
 3951SOL    HW113273   4.861   0.862   6.227 -0.1668 -0.2237  0.3056
 3951SOL    HW213274   4.716   0.826   6.253 -0.3312  0.3230  0.1569
 3952SOL     OW13275   1.198   6.723   6.634 -0.0848 -0.0241 -0.0674
 3952SOL    HW113276   1.109   6.723   6.668 -0.0148  0.7642  0.1490
 3952SOL    HW213277   1.254   6.711   6.711  0.0001 -0.5923 -0.2115
 3953SOL     OW13278   1.859   5.342   2.398  0.2347  0.0941  0.5276
 3953SOL    HW113279   1.857   5.281   2.472 -0.0414  0.4616  0.8304
 3953SOL    HW213280   1.769   5.373   2.390 -0.1551 -1.3662 -1.2008
 3954SOL     OW13281   7.743   1.034   4.777 -0.2012 -0.6407 -0.3984
 3954SOL    HW113282   7.748   1.096   4.704  1.1108 -0.8359 -0.5038
 3954SOL    HW213283   7.720   0.951   4.735 -2.6493 -0.1326 -0.1740
 3955SOL     OW13284   1.906   7.589   2.834  0.6543  0.0790 -0.3452
 3955SOL    HW113285   1.994   7.554   2.842 -0.0286 -1.4770  0.8392
 3955SOL    HW213286   1.849   7.513   2.838 -0.7374  0.9730 -1.8507
 3956SOL     OW13287   6.827   6.085   1.046 -0.1739 -0.0706  1.2379
 3956SOL    HW113288   6.895   6.084   0.978 -1.1560  1.1281  0.1764
 3956SOL    HW213289   6.808   5.993   1.063  1.1130 -0.4067  0.9370
 3957SOL     OW13290   1.859   7.793   5.593 -0.0559 -0.0186 -0.6705
 3957SOL    HW113291   1.834   7.884   5.608 -0.4292 -0.2356  0.0804
 3957SOL    HW213292   1.950   7.787   5.623 -0.4299 -0.1732  0.5160
 3958SOL     OW13293   0.189   5.890   4.329  1.0933  0.0741  0.2403
 3958SOL    HW113294   0.142   5.966   4.365 -0.0115 -1.1523  1.4860
 3958SOL    HW213295   0.170   5.893   4.235 -1.8086 -0.5049  0.7013
 3959SOL     OW13296   4.626   1.893   3.580  0.2476  0.1030  0.3582
 3959SOL    HW113297   4.542   1.923   3.616 -0.5354 -1.0464 -0.4205
 3959SOL    HW213298   4.648   1.816   3.633  0.3259 -0.1524 -0.0428
 3960SOL     OW13299   3.066   1.817   6.747 -0.1179 -1.0137  0.2961
 3960SOL    HW113300   2.982   1.848   6.781 -0.5012 -1.9212  0.2085
 3960SOL    HW213301   3.123   1.814   6.824  0.3727  1.2418  0.0800
 3961SOL     OW13302   7.061   3.058   4.105 -0.4805 -0.5306 -0.2792
 3961SOL    HW113303   7.094   3.054   4.195  0.1363  2.2770 -0.2676
 3961SOL    HW213304   7.116   2.997   4.056  1.9948  0.8806  0.5566
 3962SOL     OW13305   0.945   3.223   7.554 -0.2668 -0.1900  0.0131
 3962SOL    HW113306   0.962   3.245   7.645  1.0709  2.4195 -0.7855
 3962SOL    HW213307   0.978   3.133   7.544  0.5467 -0.1216  1.8156
 3963SOL     OW13308   1.439   7.221   6.300  0.1608 -0.2414 -0.0951
 3963SOL    HW113309   1.374   7.157   6.331 -1.2587  2.1050  2.1606
 3963SOL    HW213310   1.518   7.201   6.350 -0.1708 -0.4515  0.3541
 3964SOL     OW13311   2.701   4.225   3.309  0.0467 -0.8989  0.6306
 3964SOL    HW113312   2.684   4.192   3.221  0.7629 -0.6315  0.3831
 3964SOL    HW213313   2.741   4.152   3.355 -0.2133 -1.0000  0.6964
 3965SOL     OW13314   1.120   6.350   2.623  0.6619 -0.3886 -0.1591
 3965SOL    HW113315   1.039   6.339   2.572 -0.4157 -1.2307  1.6433
 3965SOL    HW213316   1.128   6.444   2.635 -0.8512 -0.3423  0.7965
 3966SOL     OW13317   6.701   0.719   1.549 -0.5853 -0.0619 -0.0019
 3966SOL    HW113318   6.781   0.667   1.549 -2.3564 -2.9950  0.8013
 3966SOL    HW213319   6.704   0.766   1.633  0.5208  0.2940 -0.2201
 3967SOL     OW13320   0.014   4.278   5.501  0.0539 -0.2272 -0.0419
 3967SOL    HW113321  -0.013   4.368   5.519 -0.1288 -0.3208  0.1544
 3967SOL    HW213322   0.019   4.237   5.587  3.2586  0.4524  0.2419
 3968SOL     OW13323   0.267   1.522   0.872  0.3747 -0.4242 -0.0876
 3968SOL    HW113324   0.218   1.514   0.790 -1.6345  0.5055  0.9466
 3968SOL    HW213325   0.276   1.616   0.886  1.8429 -0.5692  0.1590
 3969SOL     OW13326   4.183   8.033   5.987  0.1889  0.0117  0.0812
 3969SOL    HW113327   4.275   8.047   5.967  0.0746  1.5155  0.4731
 3969SOL    HW213328   4.180   8.019   6.081  0.0488 -0.4329  0.0148
 3970SOL     OW13329   7.578   6.470   0.836  0.3829  0.1620 -0.2171
 3970SOL    HW113330   7.541   6.485   0.749  0.4544 -0.8157 -0.4319
 3970SOL    HW213331   7.585   6.557   0.875 -2.0523  0.4132 -0.2040
 3971SOL     OW13332   1.503   3.886   4.591  0.1535  0.2357 -0.2159
 3971SOL    HW113333   1.502   3.914   4.683  1.7643 -0.6144  0.0933
 3971SOL    HW213334   1.592   3.853   4.577 -0.3286 -0.4623 -1.8392
 3972SOL     OW13335   2.165   4.198   4.774  0.1793 -0.0218  0.0598
 3972SOL    HW113336   2.154   4.107   4.801  0.3222 -0.2552 -0.6505
 3972SOL    HW213337   2.087   4.217   4.722  0.4757  0.0476 -0.3604
 3973SOL     OW13338   7.305   7.070   2.551 -0.0330 -0.2400  0.0208
 3973SOL    HW113339   7.226   7.016   2.554 -0.4879  0.1824 -2.5561
 3973SOL    HW213340   7.274   7.160   2.567  0.0444 -0.1715 -0.2090
 3974SOL     OW13341   0.061   3.588   7.556  0.1987  0.1768 -0.8286
 3974SOL    HW113342   0.102   3.584   7.642  1.3218  0.6742 -1.3225
 3974SOL    HW213343  -0.022   3.632   7.571  1.4002  2.4095 -0.3409
 3975SOL     OW13344   5.694   0.008   5.137  0.4320  0.1778 -0.4404
 3975SOL    HW113345   5.647   0.059   5.203 -0.0803  0.2265 -0.8331
 3975SOL    HW213346   5.784   0.005   5.168  0.0435 -0.5130  0.7023
 3976SOL     OW13347   2.518   1.795   8.057 -0.0475  0.2608  0.2689
 3976SOL    HW113348   2.565   1.849   8.120 -0.1102 -1.3243  1.7473
 3976SOL    HW213349   2.456   1.745   8.110  0.3570 -1.6275 -0.9485
 3977SOL     OW13350   1.728   3.992   3.669  0.1539 -0.7645 -0.2548
 3977SOL    HW113351   1.751   3.899   3.665 -1.6522 -1.2174 -1.3775
 3977SOL    HW213352   1.812   4.037   3.681  0.9997 -2.5550  1.0536
 3978SOL     OW13353   3.255   5.497   4.129 -0.3895  0.4202 -0.4090
 3978SOL    HW113354   3.212   5.427   4.179 -0.6033 -0.9879 -2.3991
 3978SOL    HW213355   3.251   5.466   4.038  1.9678  1.7854 -1.0473
 3979SOL     OW13356   6.707   3.180   4.443  0.1405 -0.0510 -0.5026
 3979SOL    HW113357   6.762   3.241   4.493 -0.8207 -1.2428  2.2255
 3979SOL    HW213358   6.730   3.197   4.352  0.1997  4.1015  0.0720
 3980SOL     OW13359   2.568   4.562   0.471  0.1000 -0.2003 -0.3513
 3980SOL    HW113360   2.624   4.488   0.495 -1.9598 -1.4952  0.7041
 3980SOL    HW213361   2.507   4.527   0.406 -1.3768  0.3243  0.7017
 3981SOL     OW13362   6.038   5.476   3.065  0.1338 -0.1396  0.0707
 3981SOL    HW113363   6.067   5.552   3.015  0.5477  1.4759  2.5757
 3981SOL    HW213364   6.086   5.482   3.147 -0.9561 -2.3057  0.9329
 3982SOL     OW13365   0.969   1.125   1.042  0.2001 -0.0742 -0.0390
 3982SOL    HW113366   0.927   1.075   0.973  1.0291  0.1371 -0.7155
 3982SOL    HW213367   0.963   1.216   1.013  2.0806 -0.1189 -0.7300
 3983SOL     OW13368   4.283   5.940   7.906  0.1015  0.0324 -0.1411
 3983SOL    HW113369   4.327   6.006   7.852  0.7024 -0.3932 -0.1872
 3983SOL    HW213370   4.231   5.990   7.969  4.5176  0.8452  3.3710
 3984SOL     OW13371   5.695   0.310   5.953  0.1670  0.0593 -0.2783
 3984SOL    HW113372   5.711   0.224   5.916 -0.5471  0.0827 -0.6602
 3984SOL    HW213373   5.727   0.304   6.043 -0.9633 -0.9845  0.0829
 3985SOL     OW13374   2.138   4.320   5.029  0.2455  0.1393  0.2446
 3985SOL    HW113375   2.193   4.272   5.091 -1.0493 -2.3062 -0.3570
 3985SOL    HW213376   2.161   4.284   4.943 -1.5948 -0.3048 -0.1070
 3986SOL     OW13377   0.178   5.046   6.371  0.3211 -0.2336  0.0767
 3986SOL    HW113378   0.152   5.062   6.281 -0.2042 -0.7714  0.1262
 3986SOL    HW213379   0.096   5.047   6.421  0.6060  0.0777  0.5525
 3987SOL     OW13380   5.283   3.184   0.729 -0.7424 -0.2558  0.3238
 3987SOL    HW113381   5.283   3.212   0.821  2.2541  2.8759 -0.4135
 3987SOL    HW213382   5.353   3.119   0.724 -0.3435  0.1794  0.1528
 3988SOL     OW13383   3.243   3.823   7.540 -0.1967  0.2986 -0.1896
 3988SOL    HW113384   3.154   3.837   7.509 -0.9972 -0.7005  1.5298
 3988SOL    HW213385   3.277   3.752   7.486 -1.0068 -0.3535  0.1404
 3989SOL     OW13386   2.928   7.818   0.197  0.2575 -0.3960 -0.8324
 3989SOL    HW113387   2.850   7.817   0.141 -0.2717  1.9778 -0.2514
 3989SOL    HW213388   2.984   7.885   0.158  0.6301  0.0827  0.4638
 3990SOL     OW13389   5.101   6.014   7.037 -0.0074 -0.4229  0.1502
 3990SOL    HW113390   5.185   5.969   7.049 -0.0602 -0.2940  1.0821
 3990SOL    HW213391   5.059   6.010   7.122  0.2975  1.9899  0.5071
 3991SOL     OW13392   5.151   5.409   1.097 -0.4371 -0.4082 -0.0033
 3991SOL    HW113393   5.206   5.487   1.107  0.4199 -1.2388  2.4241
 3991SOL    HW213394   5.163   5.383   1.006  1.8985  0.4177  0.0011
 3992SOL     OW13395   4.995   5.598   0.671  0.0278 -0.2690 -0.1415
 3992SOL    HW113396   5.070   5.631   0.621  0.6663 -1.6757 -0.1394
 3992SOL    HW213397   5.025   5.596   0.762  0.5573 -2.3097 -0.3293
 3993SOL     OW13398   0.751   0.855   3.730 -0.0337 -0.3976  0.2641
 3993SOL    HW113399   0.765   0.784   3.792  0.5383 -1.0709 -0.6138
 3993SOL    HW213400   0.797   0.828   3.651  0.5462  1.1467  0.0372
 3994SOL     OW13401   7.061   7.952   0.454 -0.1907  0.0491  0.7610
 3994SOL    HW113402   7.104   7.867   0.450 -0.6194 -0.1437  0.1802
 3994SOL    HW213403   6.969   7.934   0.434 -0.1976  0.7107  0.1651
 3995SOL     OW13404   5.897   0.064   6.336 -0.2284 -0.0123  0.0662
 3995SOL    HW113405   5.856   0.132   6.282 -0.0801 -0.5651 -0.7711
 3995SOL    HW213406   5.979   0.045   6.291 -0.4221 -0.9642  0.0980
 3996SOL     OW13407   7.707   7.430   7.321 -0.2744  0.4418  0.1897
 3996SOL    HW113408   7.754   7.405   7.242 -0.2191 -0.8737  0.6031
 3996SOL    HW213409   7.739   7.517   7.342  1.4013 -0.1016  0.0082
 3997SOL     OW13410   2.017   1.080   2.848  0.5694 -0.2134  0.0648
 3997SOL    HW113411   1.927   1.069   2.817  0.8009 -2.1649 -0.0282
 3997SOL    HW213412   2.071   1.043   2.779  1.3284 -0.7602  0.9221
 3998SOL     OW13413   6.627   4.806   7.590  0.2664  0.4767  0.0320
 3998SOL    HW113414   6.667   4.737   7.538  0.2478  0.8171 -0.4420
 3998SOL    HW213415   6.674   4.804   7.674 -0.9095 -1.2740  0.7076
 3999SOL     OW13416   5.326   5.825   1.899  0.2261 -0.1855  0.2366
 3999SOL    HW113417   5.311   5.908   1.944  2.3044  0.5414 -0.2943
 3999SOL    HW213418   5.295   5.839   1.810  0.1385 -0.1388  0.2749
 4000SOL     OW13419   2.531   1.679   7.823 -0.2960  0.4635 -0.3086
 4000SOL    HW113420   2.506   1.714   7.908  1.5567 -0.4857  0.6871
 4000SOL    HW213421   2.571   1.753   7.777 -0.7467  0.8251 -0.1216
 4001SOL     OW13422   4.904   6.251   0.424 -0.0305  0.0332  0.0588
 4001SOL    HW113423   4.947   6.188   0.482 -1.2239 -0.2045  0.7182
 4001SOL    HW213424   4.827   6.204   0.391 -1.3951  1.3769  1.1770
 4002SOL     OW13425   4.296   6.992   5.797 -0.2290  0.1059 -0.0158
 4002SOL    HW113426   4.286   7.013   5.704 -0.7400  0.4914  0.1223
 4002SOL    HW213427   4.332   7.072   5.836 -0.1911  0.0086  0.1501
 4003SOL     OW13428   1.955   7.111   1.063 -0.7067 -0.4228 -0.1437
 4003SOL    HW113429   1.885   7.118   1.128  0.1408 -1.2834  0.9091
 4003SOL    HW213430   1.980   7.019   1.064 -0.0880 -0.2756 -1.0713
 4004SOL     OW13431   4.637   6.804   0.411 -0.6330  0.1776  0.3545
 4004SOL    HW113432   4.687   6.849   0.343 -1.9774  0.4881 -0.4583
 4004SOL    HW213433   4.548   6.799   0.376 -0.6612 -2.6977  0.6059
 4005SOL     OW13434   4.517   4.100   1.978 -0.3687 -0.0812 -0.2419
 4005SOL    HW113435   4.427   4.069   1.979 -0.4629  0.0124 -2.2090
 4005SOL    HW213436   4.527   4.150   2.059 -1.7427 -0.9745  0.5075
 4006SOL     OW13437   0.247   3.522   5.215  0.4279  0.3619  0.7617
 4006SOL    HW113438   0.301   3.601   5.221 -1.6626  1.8839  0.7298
 4006SOL    HW213439   0.157   3.555   5.211 -0.4306 -1.8954 -1.8360
 4007SOL     OW13440   3.138   5.475   3.033  0.0413 -0.2271 -0.0431
 4007SOL    HW113441   3.111   5.488   3.124  1.7141  4.9256  0.0181
 4007SOL    HW213442   3.228   5.444   3.038  0.2411  0.3684  0.0853
 4008SOL     OW13443   3.886   0.800   7.647 -1.0530 -0.0494 -0.1987
 4008SOL    HW113444   3.889   0.883   7.600 -1.6127  0.6101  0.8722
 4008SOL    HW213445   3.972   0.792   7.689 -0.2016 -1.1031 -2.0230
 4009SOL     OW13446   3.111   3.774   0.819  0.3386  0.1282  0.3773
 4009SOL    HW113447   3.094   3.818   0.736 -0.0157 -0.8936 -0.1092
 4009SOL    HW213448   3.162   3.697   0.795 -2.1969 -1.7873  0.6890
 4010SOL     OW13449   6.760   0.405   7.649 -0.1770  0.3329 -0.2607
 4010SOL    HW113450   6.776   0.328   7.703  0.2890  1.5617  1.4225
 4010SOL    HW213451   6.715   0.371   7.572  2.1237 -1.9790 -0.7439
 4011SOL     OW13452   0.697   6.117   0.284 -0.5463 -0.1731 -0.0985
 4011SOL    HW113453   0.649   6.036   0.298  1.1311 -1.7140 -2.4947
 4011SOL    HW213454   0.660   6.154   0.204 -1.0182  1.2653  0.7463
 4012SOL     OW13455   6.801   2.058   4.700  0.2773 -0.0218  0.1317
 4012SOL    HW113456   6.747   2.108   4.760 -1.3452 -2.3632  0.7548
 4012SOL    HW213457   6.834   1.985   4.753 -0.5412 -1.7003 -1.5790
 4013SOL     OW13458   4.409   1.517   0.661 -0.6680  0.4143 -0.4017
 4013SOL    HW113459   4.345   1.535   0.730  0.3359 -0.5334  0.8252
 4013SOL    HW213460   4.493   1.546   0.698  0.1698 -1.7450 -0.4767
 4014SOL     OW13461   0.668   6.735   6.900 -0.6584 -0.3187  0.2211
 4014SOL    HW113462   0.641   6.814   6.853 -0.3042 -1.4700 -2.0849
 4014SOL    HW213463   0.673   6.762   6.992 -1.2230  2.1277 -0.3891
 4015SOL     OW13464   1.571   7.320   6.766 -0.4522  0.1152 -0.4587
 4015SOL    HW113465   1.501   7.372   6.727 -0.5167 -0.5441 -1.2479
 4015SOL    HW213466   1.575   7.241   6.713  1.1425  0.3031 -0.6742
 4016SOL     OW13467   1.185   1.559   5.234 -0.0310 -0.3330 -0.0523
 4016SOL    HW113468   1.251   1.507   5.279 -0.7533  0.2035  1.6846
 4016SOL    HW213469   1.111   1.564   5.295 -1.2986 -0.0760 -1.5300
 4017SOL     OW13470   4.098   5.019   3.837  0.4652  0.1948  0.0697
 4017SOL    HW113471   4.027   4.955   3.836 -0.6800  1.3837  1.6327
 4017SOL    HW213472   4.174   4.970   3.870 -0.0300 -0.6919 -0.0714
 4018SOL     OW13473   0.496   5.205   1.338 -0.6854  0.2067 -0.2800
 4018SOL    HW113474   0.516   5.290   1.378  2.1989 -1.4626  2.2697
 4018SOL    HW213475   0.566   5.191   1.275  0.6735 -1.3967  1.4412
 4019SOL     OW13476   4.748   7.944   5.021  0.1209  0.0876  0.0870
 4019SOL    HW113477   4.759   7.883   5.094  0.4408 -0.1833 -0.1876
 4019SOL    HW213478   4.672   7.998   5.046  0.7468  0.5674  1.0167
 4020SOL     OW13479   0.195   0.007   4.064  0.6297 -0.1603 -0.0067
 4020SOL    HW113480   0.213   0.040   3.976  3.6221 -1.4289  0.0348
 4020SOL    HW213481   0.242   0.067   4.123 -1.1128  0.5153  0.7756
 4021SOL     OW13482   3.464   7.674   6.991 -0.4362 -0.3139 -0.4924
 4021SOL    HW113483   3.427   7.589   6.968 -0.6811 -0.3184 -0.1037
 4021SOL    HW213484   3.395   7.716   7.043 -0.0611 -0.1456 -0.1239
 4022SOL     OW13485   6.362   3.686   3.086  0.1466  0.2786  0.1914
 4022SOL    HW113486   6.410   3.762   3.118  3.1995 -1.0819 -0.7174
 4022SOL    HW213487   6.422   3.612   3.100 -0.4503 -1.1670 -3.5904
 4023SOL     OW13488   4.744   3.521   1.592 -0.6156 -0.0974  0.4411
 4023SOL    HW113489   4.674   3.551   1.649  0.4469  0.9410  1.2601
 4023SOL    HW213490   4.710   3.441   1.552 -3.2928  1.7388 -1.2764
 4024SOL     OW13491   3.475   3.131   2.203 -0.3363 -0.2494 -0.0359
 4024SOL    HW113492   3.538   3.172   2.262 -0.4557  0.6609 -0.5174
 4024SOL    HW213493   3.415   3.083   2.261 -1.1351  1.5576  0.7198
 4025SOL     OW13494   2.350   3.665   4.945 -0.2737 -0.8482 -0.1046
 4025SOL    HW113495   2.415   3.733   4.929 -2.2414  0.7507 -1.9591
 4025SOL    HW213496   2.294   3.701   5.014 -1.0122 -0.8189 -0.7139
 4026SOL     OW13497   4.274   2.623   2.342  0.2104 -0.0949  0.3217
 4026SOL    HW113498   4.281   2.529   2.329 -0.4853 -0.0141 -0.7681
 4026SOL    HW213499   4.340   2.643   2.408  1.6370 -1.0769 -0.7500
 4027SOL     OW13500   1.019   5.330   0.399  0.8126 -0.1734 -0.0009
 4027SOL    HW113501   1.111   5.311   0.420  0.9642  1.4723  0.9549
 4027SOL    HW213502   0.984   5.373   0.477 -1.4015 -2.5812  0.4743
 4028SOL     OW13503   2.108   3.672   2.253  0.2608 -0.0950  0.7400
 4028SOL    HW113504   2.046   3.737   2.219  0.8724  0.5316  0.8170
 4028SOL    HW213505   2.193   3.714   2.248  0.4738 -0.2958  2.2548
 4029SOL     OW13506   6.260   1.579   3.649  0.0215  0.7158  0.4840
 4029SOL    HW113507   6.246   1.657   3.703 -1.2338  1.6258 -1.0566
 4029SOL    HW213508   6.171   1.549   3.627  0.4241  1.1509 -2.0740
 4030SOL     OW13509   0.650   2.765   4.622  0.1623  0.3930  0.4564
 4030SOL    HW113510   0.712   2.696   4.646  0.4308  0.2217 -0.6911
 4030SOL    HW213511   0.618   2.740   4.535  0.2395  1.6936  0.0288
 4031SOL     OW13512   1.958   1.247   7.649 -0.0264 -0.0659  0.5729
 4031SOL    HW113513   1.881   1.202   7.682 -0.8176  1.8025  1.4279
 4031SOL    HW213514   1.988   1.301   7.723 -0.3984  2.3903 -0.9462
 4032SOL     OW13515   0.612   7.682   3.974 -0.6364 -0.0391  0.2317
 4032SOL    HW113516   0.603   7.763   4.024  1.3805 -0.7122  1.8180
 4032SOL    HW213517   0.619   7.711   3.883  0.1020  1.5658  0.7682
 4033SOL     OW13518   0.608   0.819   5.302 -0.0853 -0.1200 -0.2360
 4033SOL    HW113519   0.694   0.829   5.343 -0.0487  1.6385 -0.6198
 4033SOL    HW213520   0.622   0.757   5.230  0.3527 -1.4733  0.9820
 4034SOL     OW13521   2.551   5.034   7.910  0.5426 -0.3536 -0.0046
 4034SOL    HW113522   2.596   5.003   7.831  0.7609  3.5299 -1.6515
 4034SOL    HW213523   2.458   5.023   7.890  0.5804  1.0022 -1.1033
 4035SOL     OW13524   6.186   2.913   7.040  0.0695 -0.0984  0.5210
 4035SOL    HW113525   6.244   2.856   6.990 -1.4010 -0.8457 -0.4123
 4035SOL    HW213526   6.233   2.996   7.045  1.7286 -1.0193  0.8642
 4036SOL     OW13527   5.054   6.231   3.814  0.6912 -0.3250 -0.0687
 4036SOL    HW113528   5.117   6.303   3.819 -0.3604  0.6119  0.2547
 4036SOL    HW213529   5.007   6.247   3.732  0.5446 -0.7302 -0.0635
 4037SOL     OW13530   7.921   1.709   3.399  0.0168  0.0544  0.4969
 4037SOL    HW113531   7.878   1.706   3.485 -0.0747 -0.9744  0.4190
 4037SOL    HW213532   7.857   1.671   3.339  0.1228  0.6707 -0.0246
 4038SOL     OW13533   4.539   0.788   1.856 -0.6623 -0.6846  0.3180
 4038SOL    HW113534   4.510   0.698   1.845  0.9785 -1.2177  0.0505
 4038SOL    HW213535   4.635   0.782   1.862 -0.6119  0.8602  2.0817
 4039SOL     OW13536   3.286   6.244   4.962 -0.1349 -0.5018 -0.2817
 4039SOL    HW113537   3.328   6.324   4.930 -0.4035  0.0968  0.8216
 4039SOL    HW213538   3.192   6.259   4.949 -0.3729  0.3658  2.0323
 4040SOL     OW13539   5.535   7.868   3.896  0.4818 -0.8213  0.1994
 4040SOL    HW113540   5.611   7.814   3.876  0.8714 -0.1718 -0.0995
 4040SOL    HW213541   5.460   7.811   3.877  0.8701 -0.9046 -1.1904
 4041SOL     OW13542   7.736   1.337   4.623 -0.3791 -0.0296 -0.2576
 4041SOL    HW113543   7.662   1.385   4.658  0.2050  1.1254 -0.5495
 4041SOL    HW213544   7.702   1.291   4.546 -0.3112  2.4709 -1.9031
 4042SOL     OW13545   6.086   5.714   4.247  0.2330  0.5528 -0.2624
 4042SOL    HW113546   6.006   5.763   4.261  1.3415  2.4947 -0.4265
 4042SOL    HW213547   6.104   5.723   4.154 -0.4005 -1.6358 -0.6657
 4043SOL     OW13548   4.932   5.131   0.874 -0.2509 -0.0279  0.0680
 4043SOL    HW113549   4.913   5.103   0.963  0.0865 -0.7029 -0.0617
 4043SOL    HW213550   5.025   5.110   0.862 -0.2900  0.0692 -0.4340
 4044SOL     OW13551   7.533   0.213   4.064  0.0202 -0.1891  0.3583
 4044SOL    HW113552   7.550   0.134   4.115  1.4453 -1.4459 -1.9006
 4044SOL    HW213553   7.441   0.207   4.039 -0.2027 -0.4830  1.2191
 4045SOL     OW13554   5.941   5.894   7.117  0.3886  0.0818 -0.3361
 4045SOL    HW113555   5.985   5.891   7.033  0.4120 -1.5052 -0.2979
 4045SOL    HW213556   5.948   5.805   7.151  0.4161  0.7017  1.3669
 4046SOL     OW13557   3.733   4.326   3.220 -0.3185  0.0816  0.2487
 4046SOL    HW113558   3.652   4.377   3.215  0.5668  1.6822  1.3635
 4046SOL    HW213559   3.797   4.378   3.172  0.7444  0.3355  1.8749
 4047SOL     OW13560   3.181   0.377   6.225  0.0330  0.4542 -0.2415
 4047SOL    HW113561   3.194   0.443   6.157 -0.1573 -0.7526 -1.5093
 4047SOL    HW213562   3.167   0.427   6.305 -2.3001  2.0155 -1.5188
 4048SOL     OW13563   2.999   6.338   2.433  0.2231 -0.7746  0.2320
 4048SOL    HW113564   2.960   6.424   2.445  0.7252 -0.5945  0.6113
 4048SOL    HW213565   2.925   6.280   2.415 -0.1733 -0.3636  0.5263
 4049SOL     OW13566   1.720   5.276   6.748  0.0051  0.1779  0.9524
 4049SOL    HW113567   1.648   5.339   6.756 -0.5803 -0.1677 -1.0281
 4049SOL    HW213568   1.752   5.287   6.659  0.4415 -1.7224  0.8277
 4050SOL     OW13569   3.879   2.388   2.272  0.4297  0.4329  0.0968
 4050SOL    HW113570   3.878   2.292   2.271  0.7713  0.4311 -0.4174
 4050SOL    HW213571   3.947   2.412   2.210 -0.7968  1.0227 -1.0740
 4051SOL     OW13572   0.826   7.172   2.277  0.0369 -0.6460  0.7932
 4051SOL    HW113573   0.848   7.260   2.249 -2.0172 -1.0392 -2.5212
 4051SOL    HW213574   0.907   7.122   2.265  0.4662  0.2120 -0.0191
 4052SOL     OW13575   2.618   2.937   4.790 -0.0008  0.4758 -0.7781
 4052SOL    HW113576   2.695   2.881   4.802 -1.1204 -1.1524 -0.9370
 4052SOL    HW213577   2.572   2.934   4.873 -0.0617  1.2239 -0.7741
 4053SOL     OW13578   7.627   1.966   3.111  0.2055  0.2458  0.2305
 4053SOL    HW113579   7.667   1.954   3.197  1.6491  0.4041 -0.3924
 4053SOL    HW213580   7.695   1.941   3.049 -1.2056 -1.0271 -0.8825
 4054SOL     OW13581   6.858   3.233   3.417 -0.3867 -0.2597 -0.1248
 4054SOL    HW113582   6.886   3.320   3.448  1.4103 -0.9094  0.1791
 4054SOL    HW213583   6.797   3.203   3.485 -0.6271  0.5371  0.0318
 4055SOL     OW13584   4.150   4.751   2.916  0.3276 -0.4347 -0.0053
 4055SOL    HW113585   4.152   4.670   2.967  0.4441 -0.5227 -0.1483
 4055SOL    HW213586   4.067   4.747   2.869  0.5855 -0.7410 -0.4440
 4056SOL     OW13587   0.738   3.761   1.899 -0.0695  0.1847 -0.0370
 4056SOL    HW113588   0.806   3.733   1.961  0.6214  2.1759  0.1863
 4056SOL    HW213589   0.770   3.732   1.814 -0.2408 -1.1701  0.3382
 4057SOL     OW13590   6.365   3.948   0.978 -0.2967  0.2654  0.0581
 4057SOL    HW113591   6.269   3.952   0.981 -0.2288  1.7099  1.4813
 4057SOL    HW213592   6.392   3.951   1.070  1.1016 -1.9154 -0.1960
 4058SOL     OW13593   0.313   5.000   1.622 -0.6234 -0.4245  0.5237
 4058SOL    HW113594   0.240   5.025   1.680  0.7736 -0.5224  2.4001
 4058SOL    HW213595   0.385   5.057   1.648  0.2477 -0.9177 -0.7246
 4059SOL     OW13596   0.335   0.772   3.686  0.8273 -0.0255 -0.2245
 4059SOL    HW113597   0.280   0.719   3.743  1.5555  0.1298  0.6519
 4059SOL    HW213598   0.397   0.815   3.745  0.9620  0.9353 -1.0331
 4060SOL     OW13599   2.153   1.202   3.078  0.1815  0.4685 -0.0353
 4060SOL    HW113600   2.239   1.215   3.038  0.2602  0.2507  0.0596
 4060SOL    HW213601   2.093   1.191   3.004 -0.2075  3.1321 -0.1999
 4061SOL     OW13602   5.384   3.663   4.138 -0.6260 -0.3964 -0.1742
 4061SOL    HW113603   5.388   3.727   4.209 -1.4669  0.6212 -1.0199
 4061SOL    HW213604   5.334   3.590   4.175 -0.3636 -0.2281  0.5332
 4062SOL     OW13605   3.896   0.169   7.974  0.1958 -0.2141  0.2842
 4062SOL    HW113606   3.877   0.075   7.981  0.4561 -0.4190 -1.3515
 4062SOL    HW213607   3.835   0.211   8.034 -0.5131 -1.3770  0.4038
 4063SOL     OW13608   5.029   3.812   6.745 -0.0593 -0.5755  0.3386
 4063SOL    HW113609   5.045   3.721   6.718 -1.9067 -0.1513 -2.6888
 4063SOL    HW213610   5.049   3.863   6.667  0.4491  1.6268  1.8306
 4064SOL     OW13611   5.144   5.837   7.604 -0.2865 -0.7834  0.1213
 4064SOL    HW113612   5.200   5.769   7.642  3.0530  1.1419 -0.9280
 4064SOL    HW213613   5.123   5.895   7.677  0.8470 -0.4599  0.2142
 4065SOL     OW13614   5.152   1.448   4.985  0.2181 -0.7961 -0.3600
 4065SOL    HW113615   5.232   1.430   4.936  0.5695  0.1707 -0.1712
 4065SOL    HW213616   5.082   1.425   4.925  0.6212  1.2840 -1.7613
 4066SOL     OW13617   3.726   7.129   0.579  0.3654 -0.2150 -0.3474
 4066SOL    HW113618   3.813   7.167   0.565  0.7257 -0.7082  0.4556
 4066SOL    HW213619   3.701   7.094   0.494  0.6592  0.5288 -0.7475
 4067SOL     OW13620   2.342   1.409   1.216  0.1694  0.2910  0.1524
 4067SOL    HW113621   2.249   1.424   1.235  0.2584  0.3225  0.5755
 4067SOL    HW213622   2.383   1.494   1.229  0.2555  0.2875 -0.0785
 4068SOL     OW13623   5.031   3.116   1.952 -0.2216  0.0052 -0.0659
 4068SOL    HW113624   4.960   3.164   1.909  1.5982  2.2793 -0.7029
 4068SOL    HW213625   5.048   3.164   2.033  1.9144  0.7777 -0.9059
 4069SOL     OW13626   1.535   2.848   1.734  0.6104  0.1622 -0.2851
 4069SOL    HW113627   1.606   2.823   1.676  1.4430  1.4051  0.1757
 4069SOL    HW213628   1.518   2.769   1.786  1.9022 -0.0348 -0.1438
 4070SOL     OW13629   4.463   5.144   6.974 -0.3072 -0.3235 -0.0914
 4070SOL    HW113630   4.540   5.141   6.917 -1.2290  3.3880 -1.8356
 4070SOL    HW213631   4.389   5.123   6.915 -1.1376  2.2425 -0.0898
 4071SOL     OW13632   0.473   1.976   0.842 -0.3940  0.0997  0.0438
 4071SOL    HW113633   0.520   1.924   0.777 -1.0770 -0.9855  0.3791
 4071SOL    HW213634   0.423   1.911   0.893 -0.2303  0.9638  1.3585
 4072SOL     OW13635   8.055   2.821   3.813  0.3389 -0.3736 -0.1007
 4072SOL    HW113636   8.015   2.758   3.873  0.9769 -0.2358  0.4758
 4072SOL    HW213637   8.020   2.905   3.841  0.6840 -0.3025  0.1259
 4073SOL     OW13638   3.682   4.690   1.844  0.1632 -0.6402  0.8017
 4073SOL    HW113639   3.711   4.715   1.756  0.8378 -1.8970  0.6424
 4073SOL    HW213640   3.683   4.772   1.894  0.3347 -0.0117 -0.1985
 4074SOL     OW13641   1.880   1.577   3.026  0.4287  0.0389 -0.1606
 4074SOL    HW113642   1.859   1.515   2.956  0.0572  1.0165 -0.9225
 4074SOL    HW213643   1.969   1.606   3.005  0.1849  0.5960 -0.4235
 4075SOL     OW13644   3.881   6.684   3.243  0.0807 -0.1017 -0.2566
 4075SOL    HW113645   3.966   6.722   3.265  0.4039 -0.4131 -0.9338
 4075SOL    HW213646   3.899   6.625   3.170 -0.4763 -1.2893  0.5331
 4076SOL     OW13647   4.125   5.388   7.627  0.0740  0.4972 -0.2289
 4076SOL    HW113648   4.214   5.352   7.621  0.2157  1.0078 -1.6707
 4076SOL    HW213649   4.138   5.477   7.661  0.2149  0.8651 -1.2158
 4077SOL     OW13650   4.562   7.016   6.014  0.5267 -0.3402  0.2164
 4077SOL    HW113651   4.585   7.009   6.106  1.1291 -1.5037  0.0080
 4077SOL    HW213652   4.513   7.098   6.006 -0.6915 -0.8669  1.8020
 4078SOL     OW13653   3.410   2.567   3.656  0.1179 -0.2799  0.0570
 4078SOL    HW113654   3.479   2.596   3.596  0.3410 -0.1987  0.3449
 4078SOL    HW213655   3.332   2.614   3.629  0.1877 -0.3351 -0.2432
 4079SOL     OW13656   7.750   2.463   4.783 -0.6451  0.0704 -0.5072
 4079SOL    HW113657   7.670   2.496   4.823  0.8671  2.6488  0.6229
 4079SOL    HW213658   7.800   2.426   4.856 -0.5264 -0.9937 -1.1077
 4080SOL     OW13659   6.418   3.116   8.055  0.2767  0.1010 -0.0743
 4080SOL    HW113660   6.415   3.051   7.985 -2.3944  1.7713 -1.6686
 4080SOL    HW213661   6.467   3.189   8.017  0.0848  0.4449  0.3333
 4081SOL     OW13662   1.069   5.008   5.589  0.5209  0.0069  0.2987
 4081SOL    HW113663   1.091   4.916   5.572 -1.6587 -0.6347  0.6140
 4081SOL    HW213664   0.994   5.004   5.648 -0.1692  1.9757 -0.3529
 4082SOL     OW13665   7.035   2.510   0.760  0.4334  0.0624 -0.0476
 4082SOL    HW113666   7.077   2.477   0.840  1.0370 -1.6318 -1.0169
 4082SOL    HW213667   7.090   2.478   0.689 -0.1938  1.3795 -1.1877
 4083SOL     OW13668   6.778   5.851   3.465 -0.4934 -0.5648  0.5066
 4083SOL    HW113669   6.779   5.869   3.559  0.3416  0.7298  0.2696
 4083SOL    HW213670   6.848   5.905   3.429 -1.9850  0.4245 -1.1036
 4084SOL     OW13671   3.968   3.752   2.363  0.0216 -0.2498 -0.5550
 4084SOL    HW113672   3.944   3.668   2.404 -0.0957 -0.3655 -0.8578
 4084SOL    HW213673   3.899   3.767   2.299  0.5295 -0.3710 -1.1312
 4085SOL     OW13674   6.840   2.898   5.795  0.2277  0.1301  0.1409
 4085SOL    HW113675   6.851   2.973   5.852  2.8336  0.8495 -1.1489
 4085SOL    HW213676   6.758   2.914   5.749  0.7926  2.3094 -0.2041
 4086SOL     OW13677   2.279   5.505   0.624  0.2452  0.4930 -0.3792
 4086SOL    HW113678   2.373   5.491   0.615  0.2035  1.3389 -3.2062
 4086SOL    HW213679   2.270   5.599   0.638 -0.1739  0.3038  0.7128
 4087SOL     OW13680   1.105   0.939   0.251  0.2657  0.4790  0.2165
 4087SOL    HW113681   1.065   0.870   0.304  1.4556  0.4171  1.0933
 4087SOL    HW213682   1.157   0.990   0.314 -0.2145  1.9017 -0.4902
 4088SOL     OW13683   0.271   0.341   1.456  0.2907  0.0012  0.3874
 4088SOL    HW113684   0.312   0.342   1.542  1.4126  0.9543 -0.1271
 4088SOL    HW213685   0.197   0.402   1.465  0.8954  0.7475  0.4732
 4089SOL     OW13686   7.717   4.906   0.010 -0.1976 -0.1553 -0.0963
 4089SOL    HW113687   7.656   4.954  -0.045 -0.2380 -1.7570 -1.5262
 4089SOL    HW213688   7.786   4.877  -0.049  0.0880 -1.3995  0.7851
 4090SOL     OW13689   5.463   1.457   5.408 -0.2663 -0.3708  0.2223
 4090SOL    HW113690   5.413   1.388   5.364 -1.6980  1.2911 -0.8938
 4090SOL    HW213691   5.526   1.487   5.343  0.1580 -0.4081  0.6079
 4091SOL     OW13692   7.663   7.962   3.648  0.2389  0.2781  0.4529
 4091SOL    HW113693   7.628   8.050   3.659  0.8969  0.7058 -0.7330
 4091SOL    HW213694   7.754   7.975   3.621  0.3081 -0.7532  0.1419
 4092SOL     OW13695   4.158   6.876   6.032  0.1397 -0.0718 -0.3142
 4092SOL    HW113696   4.217   6.909   5.964 -0.0275  0.9808  0.0256
 4092SOL    HW213697   4.210   6.875   6.112 -0.6442  2.3151  0.3139
 4093SOL     OW13698   2.366   1.145   4.689  0.4813 -0.2901 -0.1254
 4093SOL    HW113699   2.403   1.117   4.605  0.9800 -1.6337  0.5119
 4093SOL    HW213700   2.306   1.075   4.714 -0.7977  0.7837 -0.0265
 4094SOL     OW13701   6.112   0.783   4.279  0.5816  0.1709 -0.3256
 4094SOL    HW113702   6.183   0.741   4.231  1.6439  1.1020  0.3791
 4094SOL    HW213703   6.141   0.784   4.370 -0.2399  0.7550 -0.0495
 4095SOL     OW13704   1.497   7.079   6.609  0.1760 -0.8691  0.0049
 4095SOL    HW113705   1.445   7.051   6.535 -0.0740 -2.0329  0.5913
 4095SOL    HW213706   1.584   7.097   6.572 -0.3956  0.2729 -0.8324
 4096SOL     OW13707   2.848   7.120   3.290 -0.2748 -0.1736  0.0277
 4096SOL    HW113708   2.848   7.214   3.309 -0.6914 -0.2710  0.5300
 4096SOL    HW213709   2.755   7.096   3.292 -0.0299 -1.0767  2.3165
 4097SOL     OW13710   2.379   5.822   2.857  0.2823 -0.7109 -0.1089
 4097SOL    HW113711   2.351   5.810   2.767  1.2567 -3.8722 -0.1246
 4097SOL    HW213712   2.475   5.822   2.852  0.3448  0.0321  0.8413
 4098SOL     OW13713   6.455   1.693   1.582 -0.1393 -0.1373 -0.1233
 4098SOL    HW113714   6.425   1.677   1.671  1.9548 -0.2844  0.5974
 4098SOL    HW213715   6.520   1.624   1.565 -2.1673 -1.6628 -2.7063
 4099SOL     OW13716   2.219   4.530   7.924  0.2360 -0.5567 -0.3036
 4099SOL    HW113717   2.240   4.613   7.967  1.3715 -1.1396  0.3008
 4099SOL    HW213718   2.137   4.502   7.965 -0.5182  0.5595 -0.9767
 4100SOL     OW13719   0.581   2.380   0.652  0.1161 -0.3117 -0.4535
 4100SOL    HW113720   0.543   2.350   0.569 -1.1477 -0.2706  0.0840
 4100SOL    HW213721   0.659   2.429   0.626  1.6171 -2.9886 -1.4345
 4101SOL     OW13722   2.004   2.777   7.694  0.1966 -0.3013 -0.1793
 4101SOL    HW113723   2.079   2.816   7.650 -0.3474  0.9168 -0.0947
 4101SOL    HW213724   1.934   2.842   7.683  0.0007  0.0163  2.3508
 4102SOL     OW13725   0.651   5.811   1.384  0.2878  0.1338 -0.1007
 4102SOL    HW113726   0.660   5.831   1.291  1.2725  0.7754  0.1108
 4102SOL    HW213727   0.649   5.897   1.427  0.8939 -0.1536  0.5355
 4103SOL     OW13728   5.827   2.520   1.310  0.1128  0.3745 -0.1000
 4103SOL    HW113729   5.748   2.569   1.289 -0.3263 -0.0221  0.6010
 4103SOL    HW213730   5.889   2.586   1.340  0.1987  0.7408 -1.0481
 4104SOL     OW13731   0.041   2.106   4.963  0.0786 -0.1468 -0.1584
 4104SOL    HW113732   0.129   2.144   4.967  0.2115 -0.4912  3.0808
 4104SOL    HW213733   0.052   2.016   4.995 -1.3239 -0.4533 -0.4648
 4105SOL     OW13734   5.107   2.058   1.242 -0.5128  0.7990  0.1311
 4105SOL    HW113735   5.032   2.006   1.211 -1.4641  1.9659  0.4056
 4105SOL    HW213736   5.148   2.003   1.310 -1.7530  0.5595  0.7163
 4106SOL     OW13737   2.188   7.145   0.559 -0.6862 -0.3942  0.0569
 4106SOL    HW113738   2.281   7.156   0.576 -0.6581  2.0762 -1.1631
 4106SOL    HW213739   2.146   7.219   0.603 -2.1734 -1.6819  0.9366
 4107SOL     OW13740   4.991   5.952   2.866 -0.5490 -0.2511 -0.4457
 4107SOL    HW113741   5.079   5.916   2.872  0.1951  1.6358  0.8435
 4107SOL    HW213742   4.964   5.965   2.957 -1.2664  1.1892 -0.8307
 4108SOL     OW13743   5.986   1.097   6.199 -0.4799 -0.3524 -0.3485
 4108SOL    HW113744   5.931   1.044   6.257  1.1682 -0.1942  1.4991
 4108SOL    HW213745   6.071   1.098   6.243  1.0466 -0.6538 -3.1168
 4109SOL     OW13746   5.849   5.059   7.140  0.1939 -0.3672  0.7382
 4109SOL    HW113747   5.864   4.964   7.139 -0.6357 -0.5291 -1.1959
 4109SOL    HW213748   5.931   5.096   7.173  0.3676 -1.7648  1.9687
 4110SOL     OW13749   2.324   1.365   6.334  0.2352 -0.0098  0.3441
 4110SOL    HW113750   2.340   1.360   6.239  1.7004 -1.0533  0.6039
 4110SOL    HW213751   2.280   1.283   6.355  1.3225 -0.5151  0.7674
 4111SOL     OW13752   4.917   0.321   7.228 -0.1279 -0.3732 -0.1114
 4111SOL    HW113753   4.931   0.343   7.320  0.8231 -0.4196 -0.2299
 4111SOL    HW213754   4.921   0.225   7.226  1.6516 -0.3221 -0.4418
 4112SOL     OW13755   4.058   8.061   3.694 -0.1231 -0.1309 -0.3499
 4112SOL    HW113756   4.069   8.151   3.724 -0.3641 -0.5781  1.1296
 4112SOL    HW213757   3.975   8.061   3.646 -0.2496  0.3709 -0.1265
 4113SOL     OW13758   1.650   5.534   2.802  0.7469  0.9468 -0.1773
 4113SOL    HW113759   1.661   5.577   2.887  0.7352  0.1295  0.2520
 4113SOL    HW213760   1.737   5.497   2.783  0.4139 -0.0446  0.1481
 4114SOL     OW13761   6.640   5.539   5.994 -0.3584  0.2641 -0.1400
 4114SOL    HW113762   6.579   5.581   6.055 -0.9052  0.6668 -0.9358
 4114SOL    HW213763   6.658   5.606   5.929  2.1347  0.6538  0.8584
 4115SOL     OW13764   2.163   4.793   7.358 -0.5500  0.0223 -0.8144
 4115SOL    HW113765   2.102   4.754   7.295 -0.1534 -2.0641  0.0186
 4115SOL    HW213766   2.248   4.754   7.336 -0.2768 -0.1742  0.5140
 4116SOL     OW13767   2.483   7.078   5.078 -0.4518  0.5094 -0.3946
 4116SOL    HW113768   2.504   7.151   5.136 -0.6847  0.6047 -0.4271
 4116SOL    HW213769   2.545   7.009   5.102 -0.8372  0.3888  0.2814
 4117SOL     OW13770   6.184   4.911   2.713 -0.4028 -0.0900 -0.4286
 4117SOL    HW113771   6.134   4.882   2.789  0.2644  0.1962  0.1382
 4117SOL    HW213772   6.195   5.006   2.726 -0.4757  0.0009 -0.9999
 4118SOL     OW13773   4.402   7.815   5.072  0.2497 -0.0252 -0.6824
 4118SOL    HW113774   4.385   7.904   5.041  0.2102  0.4457  0.6477
 4118SOL    HW213775   4.428   7.767   4.993  0.9342  1.3236 -1.3088
 4119SOL     OW13776   2.860   6.751   2.915  0.4130 -0.5227  0.1284
 4119SOL    HW113777   2.932   6.798   2.957  0.3601  0.4166 -0.8012
 4119SOL    HW213778   2.857   6.666   2.961  1.6660 -0.3160  0.6304
 4120SOL     OW13779   4.442   4.931   1.298  0.0871 -0.6948 -0.1269
 4120SOL    HW113780   4.476   4.846   1.272 -1.4547 -1.7104  0.9640
 4120SOL    HW213781   4.356   4.937   1.255  0.1906  0.3565 -0.2349
 4121SOL     OW13782   3.415   5.765   7.208  0.0456 -0.2333 -0.1629
 4121SOL    HW113783   3.421   5.813   7.291 -0.8999  0.8477 -0.6951
 4121SOL    HW213784   3.490   5.705   7.210  0.3117  0.0971  1.2549
 4122SOL     OW13785   5.553   7.962   0.088 -0.4209  0.0808 -0.1161
 4122SOL    HW113786   5.511   8.015   0.156 -0.0532  2.2780 -1.5295
 4122SOL    HW213787   5.642   7.997   0.081 -0.2010 -0.6367 -1.1833
 4123SOL     OW13788   5.985   3.248   1.771 -0.3105  0.0797 -0.1825
 4123SOL    HW113789   5.949   3.313   1.710  1.0512  0.4203 -0.6678
 4123SOL    HW213790   6.030   3.185   1.714  0.7215  0.2302  0.4552
 4124SOL     OW13791   5.011   5.057   1.424  0.0361  0.0700  0.6280
 4124SOL    HW113792   5.014   5.139   1.375 -0.9085  1.2692  2.4625
 4124SOL    HW213793   4.950   5.074   1.496  1.5641 -1.4810  2.4021
 4125SOL     OW13794   5.991   4.652   6.964 -0.1076 -0.4157 -0.1988
 4125SOL    HW113795   5.973   4.741   6.934  0.0605  0.3684  1.8720
 4125SOL    HW213796   5.942   4.644   7.046 -1.0950 -2.6801 -0.9578
 4126SOL     OW13797   4.595   3.531   3.123 -0.1091  0.0297 -0.1492
 4126SOL    HW113798   4.608   3.492   3.037  2.0120  0.8124 -0.2557
 4126SOL    HW213799   4.552   3.615   3.106 -1.8147 -0.8297 -0.2022
 4127SOL     OW13800   3.022   0.156   1.840  0.2938  0.4672  0.0739
 4127SOL    HW113801   3.088   0.088   1.849  0.2342  0.4966  0.8120
 4127SOL    HW213802   2.988   0.145   1.752  1.3140  0.4821 -0.3331
 4128SOL     OW13803   6.214   0.679   2.373 -0.3807  0.6654  0.0700
 4128SOL    HW113804   6.296   0.714   2.408 -0.6151  0.5190  0.7693
 4128SOL    HW213805   6.240   0.634   2.292  0.1865  0.8427  0.1509
 4129SOL     OW13806   8.056   4.383   2.345 -0.1479  0.1941  0.0929
 4129SOL    HW113807   8.106   4.314   2.388 -0.8650  0.4310  1.3725
 4129SOL    HW213808   7.968   4.377   2.384 -0.5479  1.0719 -0.6193
 4130SOL     OW13809   5.068   7.731   2.967 -0.0800  0.3853  0.1174
 4130SOL    HW113810   5.035   7.813   2.931  1.5040  0.1872 -2.0337
 4130SOL    HW213811   5.109   7.687   2.892  1.1985 -1.2782  1.6925
 4131SOL     OW13812   2.011   7.434   5.524 -0.6338  0.0163 -0.2256
 4131SOL    HW113813   2.077   7.495   5.490  0.9467 -2.2876 -1.5472
 4131SOL    HW213814   2.006   7.453   5.618  1.6371  0.5358 -0.1577
 4132SOL     OW13815   7.741   5.661   7.491  0.0640  0.3510  0.5097
 4132SOL    HW113816   7.783   5.746   7.479 -0.8850  0.6641 -0.7824
 4132SOL    HW213817   7.750   5.643   7.585 -0.2998  2.1827  0.9323
 4133SOL     OW13818   3.465   0.112   3.166  0.2332  0.6186  1.0702
 4133SOL    HW113819   3.431   0.023   3.153  0.5940  0.6415 -0.1216
 4133SOL    HW213820   3.559   0.104   3.152  0.2494  1.2178  0.8274
 4134SOL     OW13821   2.814   4.422   2.511  0.1972 -0.4156 -0.6762
 4134SOL    HW113822   2.894   4.391   2.470  0.0221 -1.7666 -0.0561
 4134SOL    HW213823   2.827   4.406   2.605 -1.6009 -2.7448 -0.7315
 4135SOL     OW13824   1.346   7.055   6.840  0.3291  0.3227  0.5947
 4135SOL    HW113825   1.417   7.093   6.893  1.5672 -1.3166  0.2006
 4135SOL    HW213826   1.388   7.036   6.756 -0.9602  0.5813 -0.1214
 4136SOL     OW13827   1.453   7.868   0.121  0.0432 -0.1970 -0.5777
 4136SOL    HW113828   1.417   7.786   0.155 -0.7554 -0.4294 -1.8945
 4136SOL    HW213829   1.518   7.895   0.186 -1.0877 -0.8299  0.8795
 4137SOL     OW13830   6.019   0.580   5.830 -0.3295  0.4900  0.1727
 4137SOL    HW113831   5.977   0.638   5.894  0.4974  1.3319 -0.0282
 4137SOL    HW213832   5.949   0.520   5.803 -1.0932  1.1172  0.7002
 4138SOL     OW13833   1.720   6.391   2.692  0.0909  0.1905 -0.2669
 4138SOL    HW113834   1.682   6.338   2.762  0.1941  0.3016 -0.1267
 4138SOL    HW213835   1.789   6.441   2.735 -0.2734  0.7391 -0.3187
 4139SOL     OW13836   1.466   0.653   3.254 -0.1154 -0.2900  0.2502
 4139SOL    HW113837   1.459   0.645   3.159 -1.1799 -1.5793  0.4031
 4139SOL    HW213838   1.557   0.632   3.274  0.1507  0.1333 -0.4905
 4140SOL     OW13839   6.131   0.468   1.423 -0.1104  0.2148  0.0515
 4140SOL    HW113840   6.122   0.380   1.386  0.1595 -0.5164  1.6450
 4140SOL    HW213841   6.052   0.514   1.394 -0.7264 -0.8513 -0.0188
 4141SOL     OW13842   6.530   2.321   6.856 -0.3502  0.2370 -0.0687
 4141SOL    HW113843   6.438   2.316   6.828  0.1779 -3.3338 -1.6774
 4141SOL    HW213844   6.578   2.278   6.786  2.1611 -1.0758  2.2911
 4142SOL     OW13845   6.882   7.541   2.805 -0.2128 -0.0828 -0.1228
 4142SOL    HW113846   6.962   7.594   2.808 -0.9007  0.9778  0.0931
 4142SOL    HW213847   6.913   7.453   2.785  0.9839  0.3647 -0.3696
 4143SOL     OW13848   6.465   2.646   3.429  0.3940 -0.0729  0.3567
 4143SOL    HW113849   6.560   2.641   3.439  0.4065 -1.0821 -0.1642
 4143SOL    HW213850   6.435   2.690   3.509  1.3288  0.7069  0.3044
 4144SOL     OW13851   6.845   7.330   6.064 -0.2413  0.0585  0.8963
 4144SOL    HW113852   6.771   7.335   6.124 -0.1923  1.2268  0.8793
 4144SOL    HW213853   6.862   7.421   6.039  1.2608 -0.1725  0.9720
 4145SOL     OW13854   2.679   2.773   5.433  0.6212 -0.3421  0.3287
 4145SOL    HW113855   2.615   2.826   5.385  0.0829 -0.8529  0.4825
 4145SOL    HW213856   2.761   2.784   5.384 -0.2330 -2.0619 -1.6224
 4146SOL     OW13857   2.365   4.911   3.753  0.2368 -0.0712  0.2689
 4146SOL    HW113858   2.298   4.844   3.737 -0.7667  0.8785  0.4275
 4146SOL    HW213859   2.329   4.965   3.823  1.3586  0.2236  0.6425
 4147SOL     OW13860   6.701   3.182   4.969 -0.1109 -0.2463  0.4391
 4147SOL    HW113861   6.608   3.170   4.985 -0.4218 -0.8324 -1.5499
 4147SOL    HW213862   6.717   3.275   4.988 -1.7530  0.6007 -1.8227
 4148SOL     OW13863   1.938   1.671   6.671  0.3548 -0.0265 -0.2864
 4148SOL    HW113864   1.966   1.707   6.586 -0.6070  2.8003  0.4609
 4148SOL    HW213865   1.895   1.745   6.715 -2.1498 -2.2850  1.3616
 4149SOL     OW13866   0.505   0.829   0.050 -0.1803 -0.1337  0.2886
 4149SOL    HW113867   0.496   0.805   0.143 -1.1119  0.8766  0.4752
 4149SOL    HW213868   0.427   0.880   0.031  0.6721  0.8632 -0.6785
 4150SOL     OW13869   6.141   6.048   4.046  0.2154 -0.1717  0.1314
 4150SOL    HW113870   6.207   6.117   4.045  0.3212 -0.2712  0.2429
 4150SOL    HW213871   6.066   6.088   4.089  0.6348 -0.4541  1.1552
 4151SOL     OW13872   7.388   5.173   6.105 -0.4584  0.2535 -0.0427
 4151SOL    HW113873   7.363   5.222   6.027  0.2849  2.1292  0.8309
 4151SOL    HW213874   7.317   5.110   6.118 -2.6564  2.6126  0.0291
 4152SOL     OW13875   6.268   7.606   5.501 -0.2553  0.0908  0.3400
 4152SOL    HW113876   6.241   7.521   5.466  0.0974 -0.4431  1.3329
 4152SOL    HW213877   6.194   7.664   5.482 -1.0186 -0.7306  0.7283
 4153SOL     OW13878   7.164   3.163   7.314 -0.5012  0.0620  0.5376
 4153SOL    HW113879   7.139   3.157   7.406  0.9039  0.5999  0.9719
 4153SOL    HW213880   7.149   3.255   7.291  0.3257  0.2085  0.5812
 4154SOL     OW13881   6.629   2.481   7.238  0.5836 -0.3421  0.8750
 4154SOL    HW113882   6.669   2.556   7.195 -0.4830 -0.5535 -0.5556
 4154SOL    HW213883   6.702   2.438   7.283  1.8483 -0.2985 -1.0140
 4155SOL     OW13884   3.140   2.572   2.685 -0.7775  0.2431 -0.5994
 4155SOL    HW113885   3.102   2.545   2.769  0.3489  0.5958  0.0527
 4155SOL    HW213886   3.112   2.506   2.623  0.5456 -1.5459  0.6040
 4156SOL     OW13887   1.874   3.876   6.306 -0.7644 -0.1560 -0.0920
 4156SOL    HW113888   1.870   3.838   6.219 -2.8511 -0.1142 -0.0775
 4156SOL    HW213889   1.795   3.843   6.350 -1.7552  2.7142  0.5124
 4157SOL     OW13890   6.394   3.728   5.019  0.0356  0.2409  0.2783
 4157SOL    HW113891   6.465   3.681   5.065  0.7456 -0.2684 -1.2749
 4157SOL    HW213892   6.323   3.733   5.084  0.6878 -1.1928  1.1596
 4158SOL     OW13893   5.789   0.556   2.051 -0.1342  0.0316 -0.3840
 4158SOL    HW113894   5.874   0.582   2.015  0.0602 -0.3481 -0.1982
 4158SOL    HW213895   5.726   0.582   1.984  0.0461  1.0381 -0.1864
 4159SOL     OW13896   4.183   6.638   3.207  0.3327  0.5854 -0.1657
 4159SOL    HW113897   4.249   6.701   3.178  2.0977 -0.9577  0.3382
 4159SOL    HW213898   4.198   6.628   3.301 -0.7543  0.3428 -0.0023
 4160SOL     OW13899   6.524   3.748   6.369 -0.1016  0.0705 -0.7647
 4160SOL    HW113900   6.452   3.685   6.377 -0.8430  0.9007 -0.6557
 4160SOL    HW213901   6.503   3.797   6.289  0.5776  0.0368 -0.9661
 4161SOL     OW13902   5.683   7.343   2.524  0.1034  0.3472  0.9389
 4161SOL    HW113903   5.589   7.336   2.506  0.4042  0.7347 -0.9793
 4161SOL    HW213904   5.724   7.352   2.438  1.9599 -0.3266  1.6879
 4162SOL     OW13905   6.457   4.078   4.450  0.2710 -0.2667 -0.2932
 4162SOL    HW113906   6.466   4.044   4.539 -0.7304 -0.7259 -0.3558
 4162SOL    HW213907   6.374   4.043   4.419  1.4429 -1.6744 -2.0884
 4163SOL     OW13908   2.800   4.735   2.523 -0.6843 -0.3122  0.3406
 4163SOL    HW113909   2.786   4.829   2.531 -1.6724 -0.2413 -1.6297
 4163SOL    HW213910   2.752   4.697   2.597 -1.4587  0.6596  0.3525
 4164SOL     OW13911   2.943   0.624   1.151 -0.5545  0.0914  0.0254
 4164SOL    HW113912   2.949   0.653   1.242  0.8803 -1.8380  0.6198
 4164SOL    HW213913   3.032   0.636   1.116 -1.2954  1.7194 -1.4868
 4165SOL     OW13914   4.624   8.045   6.361 -0.1143  0.6625 -0.3020
 4165SOL    HW113915   4.646   7.954   6.340  1.7530  1.1505 -0.6983
 4165SOL    HW213916   4.697   8.075   6.416 -0.9898  1.7594  0.2885
 4166SOL     OW13917   5.925   0.804   4.661  0.3942  0.8690  0.3361
 4166SOL    HW113918   5.953   0.882   4.710 -0.1078  0.4475  1.3185
 4166SOL    HW213919   5.838   0.826   4.627 -0.3588  0.2502  1.7975
 4167SOL     OW13920   3.058   5.909   1.404 -0.8288 -0.4164 -0.4325
 4167SOL    HW113921   3.080   5.834   1.349 -1.6819 -0.0328 -1.3367
 4167SOL    HW213922   3.000   5.962   1.350  2.8267  3.0382 -1.4887
 4168SOL     OW13923   3.265   8.016   6.244  0.0856  0.0405 -0.5093
 4168SOL    HW113924   3.311   8.046   6.323  0.4981 -1.4745 -0.1441
 4168SOL    HW213925   3.274   7.921   6.246 -2.4408 -0.2769 -0.8099
 4169SOL     OW13926   3.040   3.999   7.953 -0.3593 -0.3592  0.2878
 4169SOL    HW113927   3.109   3.998   8.019 -1.0692 -2.4748  1.1071
 4169SOL    HW213928   2.959   4.009   8.003 -0.7132  3.0171 -0.7194
 4170SOL     OW13929   5.655   4.169   5.616  0.2363 -0.5432  0.0064
 4170SOL    HW113930   5.657   4.119   5.698  0.5643  1.9079  1.5764
 4170SOL    HW213931   5.640   4.259   5.643 -1.2536  0.1517 -2.7786
 4171SOL     OW13932   3.627   0.194   1.941 -0.2246 -0.0158  0.1708
 4171SOL    HW113933   3.624   0.132   2.014 -2.5093 -1.2802 -0.8556
 4171SOL    HW213934   3.541   0.237   1.943 -0.2140  0.1567 -1.5521
 4172SOL     OW13935   1.565   1.040   7.565  0.2757 -0.3439 -0.3730
 4172SOL    HW113936   1.591   0.948   7.570  0.0639 -0.5157 -1.9515
 4172SOL    HW213937   1.609   1.074   7.487  1.1896  1.1992  0.7515
 4173SOL     OW13938   2.938   6.055   3.673  0.2995  0.5621  0.0951
 4173SOL    HW113939   2.975   6.120   3.613 -0.8489  0.1885 -1.0785
 4173SOL    HW213940   2.926   6.102   3.755  1.9032  1.0979  0.0747
 4174SOL     OW13941   0.280   4.786   1.453 -0.2755 -0.2598  0.2898
 4174SOL    HW113942   0.187   4.763   1.449 -0.3709  0.2669 -1.2264
 4174SOL    HW213943   0.283   4.868   1.502 -0.6561 -0.0877  0.0288
 4175SOL     OW13944   0.864   2.597   0.113 -0.4662  0.1489  0.1501
 4175SOL    HW113945   0.825   2.645   0.039 -0.9613  1.6061  1.2989
 4175SOL    HW213946   0.957   2.616   0.107 -0.3087 -0.8572 -0.8613
 4176SOL     OW13947   7.703   7.997   5.339  0.2583  0.1390  0.4295
 4176SOL    HW113948   7.781   8.030   5.294  0.8748 -1.4763  0.2365
 4176SOL    HW213949   7.681   8.064   5.403  1.9789  0.5097  0.6786
 4177SOL     OW13950   6.162   3.192   6.597 -0.2965  0.0996 -0.4010
 4177SOL    HW113951   6.232   3.127   6.595  1.5099  1.9476 -0.9556
 4177SOL    HW213952   6.187   3.253   6.666 -2.3153 -0.1110  0.5949
 4178SOL     OW13953   0.425   7.691   7.036 -0.2496 -0.2091 -0.2211
 4178SOL    HW113954   0.441   7.774   6.991 -2.0189 -1.2970 -3.1582
 4178SOL    HW213955   0.354   7.710   7.097 -1.0412  0.3556 -1.2828
 4179SOL     OW13956   2.650   6.354   0.644  0.4486  0.1076  0.2899
 4179SOL    HW113957   2.641   6.311   0.558  1.2464 -1.5443  0.9802
 4179SOL    HW213958   2.590   6.428   0.639  0.9673  0.4720 -1.9348
 4180SOL     OW13959   0.780   1.064   4.636 -0.2674  0.0677  0.2615
 4180SOL    HW113960   0.815   1.093   4.552  0.7482 -0.6712  0.4064
 4180SOL    HW213961   0.759   0.971   4.623 -4.0618  0.8557 -0.3851
 4181SOL     OW13962   0.758   7.099   6.081 -0.1567 -0.1212  0.2423
 4181SOL    HW113963   0.838   7.097   6.133  0.0633  1.7842  0.0709
 4181SOL    HW213964   0.785   7.135   5.997 -1.4267  2.3681  0.7910
 4182SOL     OW13965   3.139   2.005   6.504  0.4065  0.2537  0.1254
 4182SOL    HW113966   3.112   2.064   6.434  0.7978 -0.3270 -0.5208
 4182SOL    HW213967   3.069   1.939   6.508 -0.9573  1.6946  2.0378
 4183SOL     OW13968   7.886   6.524   4.235  0.0152 -0.1461  0.5790
 4183SOL    HW113969   7.865   6.431   4.226 -3.2931  0.6144 -1.1067
 4183SOL    HW213970   7.968   6.525   4.285  0.2908 -3.9234  0.5163
 4184SOL     OW13971   6.165   0.193   0.989  0.5186  0.2537 -0.2465
 4184SOL    HW113972   6.132   0.214   1.077  1.3644  1.5901 -0.2119
 4184SOL    HW213973   6.091   0.151   0.945 -0.8319  1.9817  0.2379
 4185SOL     OW13974   7.797   3.484   3.317  0.2700 -0.7252 -0.0536
 4185SOL    HW113975   7.830   3.427   3.248  2.0385  0.8635 -0.6271
 4185SOL    HW213976   7.807   3.433   3.397  0.2474 -1.8065 -0.7147
 4186SOL     OW13977   5.497   3.169   4.773 -0.8734 -0.2117  0.7631
 4186SOL    HW113978   5.498   3.178   4.868 -0.9277  3.2370  0.5638
 4186SOL    HW213979   5.405   3.179   4.749 -0.5866  2.0076  0.2800
 4187SOL     OW13980   5.552   4.337   3.555 -0.4037  0.3190  0.3253
 4187SOL    HW113981   5.627   4.353   3.498  0.4717  0.9142  1.5988
 4187SOL    HW213982   5.570   4.251   3.594 -1.1385 -0.2144 -0.4835
 4188SOL     OW13983   4.289   2.300   4.095 -0.6018 -0.2140  0.0345
 4188SOL    HW113984   4.231   2.355   4.042 -0.3956 -0.3803 -0.3728
 4188SOL    HW213985   4.312   2.227   4.037  0.9468  0.4478 -0.2167
 4189SOL     OW13986   4.125   7.675   4.295  0.1910 -0.1306 -0.2578
 4189SOL    HW113987   4.093   7.668   4.205 -0.6718 -1.0941  0.0988
 4189SOL    HW213988   4.209   7.630   4.294  1.1422  1.5626 -0.9910
 4190SOL     OW13989   5.382   7.211   1.402  0.5081 -0.7402  0.0486
 4190SOL    HW113990   5.439   7.273   1.355 -0.9344 -0.8716 -2.0249
 4190SOL    HW213991   5.428   7.127   1.396 -0.0541 -0.9738 -2.1359
 4191SOL     OW13992   6.480   1.931   7.071  0.1307  0.2923  0.1610
 4191SOL    HW113993   6.573   1.909   7.061  0.3182  1.2371 -0.2440
 4191SOL    HW213994   6.444   1.857   7.120  1.3752  0.5253  1.5144
 4192SOL     OW13995   2.715   5.997   0.341  0.8826  0.0178  0.3246
 4192SOL    HW113996   2.652   5.931   0.369  0.7095  0.7136  1.6458
 4192SOL    HW213997   2.679   6.080   0.372  1.0764  0.7699 -1.3469
 4193SOL     OW13998   2.152   7.513   5.017  0.0953  0.3566  0.4178
 4193SOL    HW113999   2.107   7.593   4.990  0.4278  1.2750  2.3867
 4193SOL    HW214000   2.092   7.442   4.993 -1.3914  1.3865  0.9691
 4194SOL     OW14001   0.664   1.768   3.359 -0.2343  0.2381 -0.1002
 4194SOL    HW114002   0.701   1.716   3.287  1.0590  0.9205  0.0375
 4194SOL    HW214003   0.700   1.728   3.438  0.8551  1.3752  0.0036
 4195SOL     OW14004   2.896   7.457   5.367 -0.7440  0.2008 -0.1856
 4195SOL    HW114005   2.833   7.505   5.420 -1.1654 -1.0598  0.5081
 4195SOL    HW214006   2.913   7.513   5.291  0.5359  2.5008  1.6449
 4196SOL     OW14007   2.469   4.234   7.230  0.1248  0.6597 -0.0527
 4196SOL    HW114008   2.472   4.175   7.154  0.8659  1.4504 -0.6588
 4196SOL    HW214009   2.400   4.296   7.209 -1.2697 -0.4690  0.9826
 4197SOL     OW14010   7.312   7.186   3.341  0.0154 -0.7309 -0.0479
 4197SOL    HW114011   7.331   7.138   3.422  0.0048 -1.5000 -0.4910
 4197SOL    HW214012   7.285   7.273   3.370  0.6449 -0.7887  0.7501
 4198SOL     OW14013   3.801   3.384   1.868  0.0295 -0.4889 -0.3489
 4198SOL    HW114014   3.744   3.310   1.888  1.3641 -1.2437  0.7889
 4198SOL    HW214015   3.757   3.460   1.907 -0.0336 -1.1138  0.8306
 4199SOL     OW14016   5.518   1.322   0.430  0.0006 -0.6043 -0.5875
 4199SOL    HW114017   5.527   1.338   0.336  0.6319 -0.8147 -0.5697
 4199SOL    HW214018   5.605   1.293   0.457 -0.1600 -0.4735  0.0778
 4200SOL     OW14019   0.964   7.716   4.276 -0.8199  0.3853 -0.5141
 4200SOL    HW114020   0.966   7.738   4.183 -0.9373  3.0289  0.0181
 4200SOL    HW214021   0.972   7.801   4.321  1.0838 -0.9270  1.9175
 4201SOL     OW14022   1.913   1.766   2.164  0.9529 -0.1073  0.0559
 4201SOL    HW114023   1.970   1.750   2.239 -0.6896 -2.3652  0.9220
 4201SOL    HW214024   1.896   1.679   2.127  0.8089  0.8326 -2.3052
 4202SOL     OW14025   4.323   7.641   0.684 -0.3725 -0.3239  0.9412
 4202SOL    HW114026   4.241   7.690   0.691 -1.0523 -1.1810 -0.5795
 4202SOL    HW214027   4.378   7.675   0.755 -1.6556  0.9964  1.3364
 4203SOL     OW14028   5.580   7.726   6.184 -0.3945 -0.0621 -0.5402
 4203SOL    HW114029   5.510   7.790   6.195 -0.4051 -0.4490  2.3714
 4203SOL    HW214030   5.641   7.744   6.255  0.8826 -1.7006 -1.1444
 4204SOL     OW14031   5.421   0.842   2.135  0.3697 -0.3033 -0.7331
 4204SOL    HW114032   5.352   0.820   2.198 -0.0103  0.8070 -0.7446
 4204SOL    HW214033   5.375   0.849   2.051  0.2656  1.5427 -0.5600
 4205SOL     OW14034   2.593   3.827   4.893 -0.9350 -0.1138  0.5273
 4205SOL    HW114035   2.676   3.781   4.906 -1.6080 -1.5685 -0.0977
 4205SOL    HW214036   2.585   3.835   4.798 -1.6053 -0.1680  0.5793
 4206SOL     OW14037   6.847   3.918   4.866 -0.2074  0.5140 -0.5814
 4206SOL    HW114038   6.878   3.995   4.818 -0.2387  0.9559  0.1021
 4206SOL    HW214039   6.765   3.894   4.821 -0.8091  1.5794 -0.0890
 4207SOL     OW14040   4.126   1.784   2.789 -0.4874  0.5864 -0.1217
 4207SOL    HW114041   4.181   1.769   2.712 -0.0120 -0.8375  0.4622
 4207SOL    HW214042   4.050   1.728   2.776  0.7931 -1.7483  1.5821
 4208SOL     OW14043   4.294   0.922   3.560 -0.3613  0.8448 -0.1159
 4208SOL    HW114044   4.324   1.006   3.593 -1.4769  1.2313 -0.0421
 4208SOL    HW214045   4.308   0.861   3.633 -0.7178  1.2268  0.2751
 4209SOL     OW14046   4.430   5.039   0.426 -0.0935 -0.1755 -0.4805
 4209SOL    HW114047   4.525   5.029   0.415 -0.2406 -1.3580 -0.8423
 4209SOL    HW214048   4.418   5.058   0.519  0.3376 -2.5705  0.1128
 4210SOL     OW14049   7.706   5.458   2.501  0.4466  0.1112  0.2209
 4210SOL    HW114050   7.703   5.382   2.443 -2.4104 -0.1284  0.5074
 4210SOL    HW214051   7.703   5.533   2.441  1.4405 -0.0233 -0.0130
 4211SOL     OW14052   4.852   4.461   6.843  0.4499 -0.2350 -0.2435
 4211SOL    HW114053   4.831   4.452   6.936 -1.2273  0.8785 -0.4703
 4211SOL    HW214054   4.940   4.499   6.841  0.3816 -0.0030  0.8775
 4212SOL     OW14055   3.886   2.119   2.244  0.2117  0.6608 -0.0301
 4212SOL    HW114056   3.878   2.029   2.214  1.0000  0.5235  0.1397
 4212SOL    HW214057   3.971   2.122   2.289 -0.4926  1.1043  1.3257
 4213SOL     OW14058   1.042   0.926   3.676 -0.5669  0.3025  0.0211
 4213SOL    HW114059   0.954   0.903   3.646 -0.8775  0.0502  1.0870
 4213SOL    HW214060   1.030   0.953   3.767  0.4256  0.5188  0.1012
 4214SOL     OW14061   7.399   7.155   6.227  0.0000 -0.3159 -0.4384
 4214SOL    HW114062   7.305   7.173   6.222  0.3644  2.2123  0.2182
 4214SOL    HW214063   7.420   7.167   6.320  0.8618 -1.5887 -0.4559
 4215SOL     OW14064   2.993   0.196   3.087  0.1047 -0.3056  0.0205
 4215SOL    HW114065   3.084   0.215   3.066  0.1969 -0.0160  0.6424
 4215SOL    HW214066   2.946   0.276   3.064  0.4675  0.7191  2.4758
 4216SOL     OW14067   7.802   2.402   0.930 -0.0915  0.3460  0.2909
 4216SOL    HW114068   7.853   2.395   1.011  1.6342 -1.4774 -0.8610
 4216SOL    HW214069   7.724   2.348   0.946  1.3713 -1.9937  0.0140
 4217SOL     OW14070   4.984   6.343   1.284  0.2066  0.1868  0.2651
 4217SOL    HW114071   4.980   6.430   1.323  1.6417 -0.5288  2.1851
 4217SOL    HW214072   4.936   6.287   1.344 -1.3337 -0.2811 -1.3186
 4218SOL     OW14073   3.525   1.056   7.020 -0.6908  0.0910  0.6396
 4218SOL    HW114074   3.569   0.975   6.993 -3.9181 -1.2487 -1.1678
 4218SOL    HW214075   3.596   1.120   7.031  1.6597 -1.6941 -2.5851
 4219SOL     OW14076   5.568   7.095   3.138 -0.6462 -0.1025  0.0006
 4219SOL    HW114077   5.528   7.129   3.218  1.2370 -0.2318  1.0535
 4219SOL    HW214078   5.649   7.055   3.167 -0.5505 -1.3457 -1.8342
 4220SOL     OW14079   2.153   5.827   4.727  0.0640 -0.8440  0.7399
 4220SOL    HW114080   2.155   5.855   4.635  4.1125 -1.5611  0.4081
 4220SOL    HW214081   2.125   5.904   4.776 -1.9363 -0.3702 -1.0021
 4221SOL     OW14082   2.298   1.322   2.628  0.2679 -0.2158 -0.0394
 4221SOL    HW114083   2.311   1.269   2.706 -2.0600  0.3067  0.7954
 4221SOL    HW214084   2.302   1.260   2.555  0.2956 -1.0836  0.6858
 4222SOL     OW14085   5.335   5.576   1.290  0.1190  0.0886  0.2381
 4222SOL    HW114086   5.356   5.534   1.374  2.3150  2.4766  1.0111
 4222SOL    HW214087   5.417   5.577   1.242 -0.5988  0.7359 -1.0258
 4223SOL     OW14088   6.107   2.049   0.787 -0.5417 -0.0057  0.4819
 4223SOL    HW114089   6.150   2.132   0.769  0.6926 -0.4871  1.0843
 4223SOL    HW214090   6.178   1.985   0.787 -1.4631 -1.0653  0.0534
 4224SOL     OW14091   0.425   6.933   7.294 -0.3072  0.4194 -0.0786
 4224SOL    HW114092   0.374   6.939   7.213 -0.7130 -0.4340  0.1029
 4224SOL    HW214093   0.362   6.953   7.363 -0.4840 -0.9073  0.1669
 4225SOL     OW14094   1.814   7.663   1.965 -0.2309 -0.1832 -0.0377
 4225SOL    HW114095   1.776   7.650   2.052 -1.7356  2.1841 -0.2394
 4225SOL    HW214096   1.907   7.646   1.977 -0.6555 -1.6389  1.6005
 4226SOL     OW14097   4.438   1.885   1.799 -0.2290 -0.1113  0.1348
 4226SOL    HW114098   4.417   1.927   1.716  0.0899 -1.6610 -0.7540
 4226SOL    HW214099   4.526   1.918   1.821  1.2655 -2.3186 -1.9819
 4227SOL     OW14100   1.158   3.258   5.675 -0.3726 -0.8263 -0.0321
 4227SOL    HW114101   1.067   3.228   5.669 -0.5875 -0.8164  2.3452
 4227SOL    HW214102   1.155   3.330   5.737  1.4855 -1.8517  1.3388
 4228SOL     OW14103   2.348   3.404   6.512  0.0522 -0.7727  0.6897
 4228SOL    HW114104   2.371   3.359   6.594 -2.2458  1.2739  2.6275
 4228SOL    HW214105   2.294   3.478   6.540  1.6683  1.8501 -2.4770
 4229SOL     OW14106   1.930   5.058   0.193  0.3359  0.3265  0.3472
 4229SOL    HW114107   1.849   5.105   0.170 -1.0553 -1.3340  1.6214
 4229SOL    HW214108   1.939   4.991   0.125  2.2483  2.2013 -1.3916
 4230SOL     OW14109   5.194   5.017   0.210  0.6097 -0.0744 -0.0748
 4230SOL    HW114110   5.145   4.937   0.229  1.4402 -1.0392 -1.7269
 4230SOL    HW214111   5.237   5.039   0.292 -1.6062  0.1463  1.0976
 4231SOL     OW14112   6.341   5.965   2.287  0.5568  0.8234  0.1538
 4231SOL    HW114113   6.279   6.029   2.252  0.2543  1.2082  1.3420
 4231SOL    HW214114   6.330   5.889   2.231  0.2887  1.5026 -0.7480
 4232SOL     OW14115   1.240   1.905   1.971  0.4996 -0.2406  0.4798
 4232SOL    HW114116   1.223   1.999   1.963  0.3618 -0.3554 -0.7655
 4232SOL    HW214117   1.267   1.893   2.062 -1.5039  0.6795  1.2472
 4233SOL     OW14118   5.805   7.012   4.724  0.2978  0.7993 -0.5670
 4233SOL    HW114119   5.747   6.977   4.656 -0.6778  0.6836  0.3030
 4233SOL    HW214120   5.805   6.946   4.792  2.3351  0.2991 -0.9887
 4234SOL     OW14121   4.442   1.449   4.099  0.7906  0.0125 -0.0360
 4234SOL    HW114122   4.525   1.490   4.071 -0.1139  2.5841  0.7375
 4234SOL    HW214123   4.436   1.470   4.192 -0.5996 -0.4173 -0.0194
 4235SOL     OW14124   7.085   3.756   3.327 -0.5994  0.1530 -0.1473
 4235SOL    HW114125   7.163   3.745   3.381 -0.2168  0.3131 -0.6659
 4235SOL    HW214126   7.051   3.843   3.351 -0.6697  0.0460  0.1415
 4236SOL     OW14127   4.516   4.334   4.990  0.1345 -0.0763 -0.0549
 4236SOL    HW114128   4.476   4.297   5.069 -0.1643  0.8982  0.2587
 4236SOL    HW214129   4.475   4.286   4.918 -0.2735 -0.3323  0.3425
 4237SOL     OW14130   5.160   3.026   5.631  0.2746 -0.1427 -0.4125
 4237SOL    HW114131   5.105   2.976   5.693 -1.2932 -0.0338 -1.6432
 4237SOL    HW214132   5.140   3.117   5.650  1.6544 -0.0074  0.5190
 4238SOL     OW14133   4.610   2.321   3.454 -0.3610  0.0102  0.0219
 4238SOL    HW114134   4.658   2.356   3.379  2.4574  0.3311  1.7965
 4238SOL    HW214135   4.592   2.398   3.509 -3.4892 -0.0278 -0.7610
 4239SOL     OW14136   6.685   3.479   7.049  0.0545  0.1230  0.3101
 4239SOL    HW114137   6.697   3.490   7.143 -0.9906  0.0025  0.4761
 4239SOL    HW214138   6.671   3.568   7.016 -0.6821  0.0701  0.4535
 4240SOL     OW14139   6.718   1.657   3.041  0.2246 -0.1303 -0.5204
 4240SOL    HW114140   6.769   1.674   2.962 -2.2368  1.1548 -1.9559
 4240SOL    HW214141   6.730   1.564   3.058  1.9505 -0.1308 -1.5563
 4241SOL     OW14142   3.781   5.926   5.961  0.0670 -0.7082  0.3305
 4241SOL    HW114143   3.717   5.995   5.943  0.0086 -0.3039  2.0101
 4241SOL    HW214144   3.864   5.961   5.930 -0.1992 -0.4759 -0.1339
 4242SOL     OW14145   7.631   7.617   3.080  0.0703  0.1873 -0.8844
 4242SOL    HW114146   7.642   7.701   3.124  1.4042 -0.7281  0.6564
 4242SOL    HW214147   7.595   7.559   3.148 -0.8037 -0.5226 -1.9061
 4243SOL     OW14148   0.858   1.164   4.343 -0.3892 -0.1713  0.0718
 4243SOL    HW114149   0.928   1.230   4.339 -0.4381 -0.0987  0.3852
 4243SOL    HW214150   0.832   1.151   4.251  0.0481 -0.2140 -0.0482
 4244SOL     OW14151   2.358   0.912   3.190  0.1832 -0.6548  0.5673
 4244SOL    HW114152   2.295   0.958   3.246  0.2431 -0.7207  0.6886
 4244SOL    HW214153   2.441   0.956   3.207  0.6869 -2.1586  2.2945
 4245SOL     OW14154   3.672   3.086   1.444 -0.1918  0.3256 -0.1738
 4245SOL    HW114155   3.579   3.066   1.431 -0.1237  0.0033 -0.1705
 4245SOL    HW214156   3.672   3.170   1.489 -0.4941  0.1923  0.0816
 4246SOL     OW14157   7.405   6.485   1.871 -0.4584  0.3736 -0.1687
 4246SOL    HW114158   7.334   6.471   1.934 -1.4157  1.3341 -1.0114
 4246SOL    HW214159   7.483   6.453   1.916 -1.5951 -2.0029  0.2672
 4247SOL     OW14160   4.769   1.731   5.227 -0.3960  0.2620 -0.3536
 4247SOL    HW114161   4.742   1.812   5.184  0.8393  1.5450  1.1133
 4247SOL    HW214162   4.704   1.718   5.297 -0.7004 -0.1253 -0.7065
 4248SOL     OW14163   2.462   7.457   2.810  0.0077 -0.1308  0.1372
 4248SOL    HW114164   2.488   7.549   2.809  1.7868 -0.5849  0.8339
 4248SOL    HW214165   2.443   7.437   2.718  1.3437  0.4881 -0.3066
 4249SOL     OW14166   1.071   0.416   4.753  0.1916  0.3454 -0.2886
 4249SOL    HW114167   1.128   0.399   4.678  0.2898  1.1679 -0.4166
 4249SOL    HW214168   1.039   0.330   4.779  1.2229 -0.1039 -0.4284
 4250SOL     OW14169   6.427   3.016   2.982  0.5429  0.0758 -0.7455
 4250SOL    HW114170   6.338   3.012   3.017  0.6160 -1.1382 -0.6711
 4250SOL    HW214171   6.415   3.029   2.888  0.2894  0.0940 -0.7108
 4251SOL     OW14172   6.103   5.150   7.657 -0.0273 -0.1448  0.0981
 4251SOL    HW114173   6.045   5.153   7.581  0.7122  0.1750 -0.4630
 4251SOL    HW214174   6.093   5.235   7.699 -1.2804 -0.7120  1.0222
 4252SOL     OW14175   2.051   5.916   7.462  0.7727 -0.3487 -0.1811
 4252SOL    HW114176   2.042   5.823   7.441  0.2914 -0.8644  2.0525
 4252SOL    HW214177   2.132   5.922   7.513  1.1469  0.5770 -0.8629
 4253SOL     OW14178   7.943   3.579   4.863 -0.3704  0.3105 -0.1987
 4253SOL    HW114179   7.868   3.604   4.917 -0.4922  2.4675 -1.2727
 4253SOL    HW214180   7.954   3.651   4.801  1.5373 -0.7506 -1.2074
 4254SOL     OW14181   6.527   6.575   5.729 -1.0978  0.5795 -0.9915
 4254SOL    HW114182   6.517   6.518   5.653 -0.2723 -0.4889 -0.3289
 4254SOL    HW214183   6.466   6.540   5.794  1.0952 -1.1590  0.2926
 4255SOL     OW14184   0.031   6.599   3.986  0.4833  0.4950 -0.1001
 4255SOL    HW114185  -0.007   6.633   4.067  0.9441 -2.2751  1.4060
 4255SOL    HW214186  -0.044   6.579   3.930  0.1579  2.3022 -0.3497
 4256SOL     OW14187   1.489   0.923   0.879 -0.8207  0.1310  0.8749
 4256SOL    HW114188   1.542   0.846   0.857 -1.2960 -0.5655  2.1309
 4256SOL    HW214189   1.550   0.997   0.868  0.3900 -0.6377  2.1251
 4257SOL     OW14190   4.480   0.073   7.996  0.1915  0.0704  0.0003
 4257SOL    HW114191   4.521   0.155   8.024 -1.3919  0.2368  2.0235
 4257SOL    HW214192   4.440   0.094   7.911  2.0947  0.5630 -0.8435
 4258SOL     OW14193   5.285   0.044   2.089  0.1735  0.4141  0.6656
 4258SOL    HW114194   5.228   0.075   2.018 -1.1382 -0.1503  1.4256
 4258SOL    HW214195   5.316   0.124   2.131  1.3988  0.7705 -0.8338
 4259SOL     OW14196   1.018   6.285   0.049  0.1245 -0.3017 -0.0730
 4259SOL    HW114197   0.936   6.290  -0.001 -0.2312  2.1221  0.6195
 4259SOL    HW214198   1.085   6.315  -0.012 -0.1758  1.7262  0.4872
 4260SOL     OW14199   4.167   4.198   4.914  0.1854 -0.7385 -0.1041
 4260SOL    HW114200   4.108   4.271   4.895  0.4338 -0.3899  0.4318
 4260SOL    HW214201   4.212   4.224   4.994  0.7518 -1.1970 -0.2669
 4261SOL     OW14202   3.366   7.530   7.813  0.5265 -0.5541  0.1329
 4261SOL    HW114203   3.357   7.589   7.888 -1.6608  0.3627 -0.7921
 4261SOL    HW214204   3.448   7.557   7.772  1.5066 -0.7377  1.8623
 4262SOL     OW14205   0.643   5.589   1.521  0.2092  0.3814  0.3475
 4262SOL    HW114206   0.649   5.674   1.478 -0.2599  0.8023  1.0933
 4262SOL    HW214207   0.624   5.610   1.612 -3.2811 -0.5255 -0.0185
 4263SOL     OW14208   5.278   4.754   1.302  0.0586 -0.0784 -0.6677
 4263SOL    HW114209   5.242   4.780   1.387 -1.5910  2.1509 -1.9240
 4263SOL    HW214210   5.331   4.829   1.275 -1.3026  0.2506 -2.5715
 4264SOL     OW14211   7.802   5.149   5.385 -0.2439  0.1241  0.1391
 4264SOL    HW114212   7.828   5.241   5.391  0.6187 -0.1633  1.1305
 4264SOL    HW214213   7.836   5.109   5.465 -1.4633 -0.8619  0.2013
 4265SOL     OW14214   1.254   0.723   6.790  0.5801 -0.2313 -0.3031
 4265SOL    HW114215   1.316   0.780   6.744  1.0790 -0.5205  0.0094
 4265SOL    HW214216   1.185   0.782   6.820  0.0030 -0.0991 -1.8206
 4266SOL     OW14217   7.574   6.229   4.115 -0.4214  0.3124 -0.2720
 4266SOL    HW114218   7.659   6.208   4.154 -0.9962 -0.5040  0.5818
 4266SOL    HW214219   7.553   6.152   4.061  0.2486  1.3238 -2.0523
 4267SOL     OW14220   1.653   3.824   6.492  0.0856  0.3859 -0.6863
 4267SOL    HW114221   1.627   3.916   6.484 -0.5915  0.2129 -0.5095
 4267SOL    HW214222   1.573   3.774   6.475  0.6559 -0.2011 -1.7395
 4268SOL     OW14223   3.768   6.672   7.722  0.4788 -0.3142 -0.0373
 4268SOL    HW114224   3.774   6.640   7.632  0.6385  0.0695 -0.1655
 4268SOL    HW214225   3.692   6.627   7.759  0.2669 -0.2867 -0.4385
 4269SOL     OW14226   1.719   6.252   1.323  0.0736 -0.1788 -0.0463
 4269SOL    HW114227   1.646   6.279   1.267  0.0817  0.9281  0.4629
 4269SOL    HW214228   1.689   6.172   1.365 -0.7325  0.1157 -0.0569
 4270SOL     OW14229   3.804   7.303   1.891 -0.0176 -0.8042  0.7142
 4270SOL    HW114230   3.863   7.311   1.966  0.4428  0.5820  0.2333
 4270SOL    HW214231   3.838   7.229   1.841  1.4317  0.0854  0.3516
 4271SOL     OW14232   3.717   7.726   5.681 -0.0650  1.0336 -0.0039
 4271SOL    HW114233   3.624   7.726   5.706 -0.5774  0.9308 -1.7250
 4271SOL    HW214234   3.715   7.709   5.587  1.7763 -0.1916  0.1424
 4272SOL     OW14235   0.942   2.144   0.710  0.6318  0.2504 -0.6547
 4272SOL    HW114236   1.029   2.169   0.681  1.8799 -2.4156  0.5352
 4272SOL    HW214237   0.889   2.143   0.630  1.4341  2.5615 -1.2964
 4273SOL     OW14238   4.449   3.215   6.324  0.2655 -0.3253  0.0809
 4273SOL    HW114239   4.456   3.142   6.263 -0.6626 -0.9317  0.6740
 4273SOL    HW214240   4.435   3.292   6.268 -1.1436 -0.9548 -0.4717
 4274SOL     OW14241   7.646   0.766   4.745 -0.1698  0.6659 -0.2091
 4274SOL    HW114242   7.552   0.783   4.751 -0.0890  1.1476 -0.2499
 4274SOL    HW214243   7.653   0.687   4.692 -0.6273 -0.3187  1.1369
 4275SOL     OW14244   4.332   0.637   7.248 -1.1505 -0.6847  0.1305
 4275SOL    HW114245   4.403   0.579   7.222  1.9259  3.7888 -2.8308
 4275SOL    HW214246   4.366   0.684   7.324 -2.0659 -0.2730  0.3016
 4276SOL     OW14247   7.417   6.866   6.700 -0.0291  0.5124  0.5134
 4276SOL    HW114248   7.343   6.873   6.759 -0.5125  1.4297 -0.1877
 4276SOL    HW214249   7.491   6.901   6.750 -0.3274  0.7908  0.7633
 4277SOL     OW14250   7.068   2.385   2.312 -0.4634  0.0352  0.4047
 4277SOL    HW114251   7.098   2.310   2.363  0.5038  0.1937  0.0852
 4277SOL    HW214252   7.136   2.452   2.325 -1.1911  0.7748  0.4942
 4278SOL     OW14253   1.582   6.448   3.392 -0.7233  0.3272  0.0917
 4278SOL    HW114254   1.586   6.364   3.437  0.4395  0.5027  0.3603
 4278SOL    HW214255   1.573   6.513   3.461  0.8173  0.5782  0.0986
 4279SOL     OW14256   7.322   6.135   4.313 -0.1335 -0.5321 -0.0124
 4279SOL    HW114257   7.352   6.115   4.224  1.5921 -1.3731  0.7185
 4279SOL    HW214258   7.400   6.168   4.357 -1.0411  0.1475  1.1245
 4280SOL     OW14259   6.735   3.739   6.966  0.2536  0.1427  0.1716
 4280SOL    HW114260   6.761   3.757   6.876  1.3736 -1.4030  0.1423
 4280SOL    HW214261   6.779   3.807   7.017 -0.9266  1.4317 -0.4762
 4281SOL     OW14262   1.226   6.526   4.199  0.1296 -0.1572 -0.0544
 4281SOL    HW114263   1.231   6.441   4.155  0.5243  0.7894 -1.9390
 4281SOL    HW214264   1.299   6.525   4.261  0.5549 -0.9241 -0.5473
 4282SOL     OW14265   0.347   1.786   1.022  0.1607 -0.1120 -0.1006
 4282SOL    HW114266   0.387   1.813   1.105 -0.8631  0.9497  0.0793
 4282SOL    HW214267   0.255   1.812   1.031 -0.4309 -1.8411 -0.7754
 4283SOL     OW14268   4.464   7.261   1.967  0.2451  0.2799 -0.6379
 4283SOL    HW114269   4.499   7.277   2.055 -0.2919  2.7824 -0.7831
 4283SOL    HW214270   4.518   7.191   1.931  0.5098 -0.7670  1.6357
 4284SOL     OW14271   6.430   1.915   5.631 -0.3733 -0.3083 -0.1091
 4284SOL    HW114272   6.446   1.884   5.720  2.1810 -0.0301 -0.4158
 4284SOL    HW214273   6.428   2.010   5.638 -0.7024 -0.3005 -0.2844
 4285SOL     OW14274   6.715   5.616   3.753 -0.1353  0.0454 -0.1522
 4285SOL    HW114275   6.724   5.674   3.828  0.1351 -0.1395 -0.0371
 4285SOL    HW214276   6.701   5.529   3.792  1.1024 -0.2324 -0.2923
 4286SOL     OW14277   4.719   3.571   5.381 -0.2739  0.2276  0.1008
 4286SOL    HW114278   4.633   3.533   5.368 -0.1125 -0.1080 -0.0012
 4286SOL    HW214279   4.780   3.499   5.363  0.0235  0.4415  0.2426
 4287SOL     OW14280   5.775   6.633   1.913  0.3868 -0.5427  0.2719
 4287SOL    HW114281   5.838   6.639   1.841 -0.8107 -0.4770 -0.8095
 4287SOL    HW214282   5.759   6.539   1.923 -1.6989 -0.4915 -1.6606
 4288SOL     OW14283   7.661   4.871   1.822  0.2294 -0.3694  0.2942
 4288SOL    HW114284   7.678   4.953   1.869  3.0974  0.5430 -2.0192
 4288SOL    HW214285   7.593   4.894   1.758 -1.0820 -0.6600  1.5306
 4289SOL     OW14286   6.800   2.468   5.051 -0.0434  0.7093 -0.3741
 4289SOL    HW114287   6.775   2.528   4.982 -1.7641 -0.6988 -1.0593
 4289SOL    HW214288   6.729   2.403   5.054  1.3382 -0.8553  0.8156
 4290SOL     OW14289   2.244   5.874   5.797 -0.3597 -0.5418  0.4407
 4290SOL    HW114290   2.172   5.928   5.763 -0.3350 -0.9761 -0.3174
 4290SOL    HW214291   2.265   5.814   5.726  0.4229 -0.7561  0.8378
 4291SOL     OW14292   2.578   2.245   4.516 -0.1588  0.0857  0.2576
 4291SOL    HW114293   2.624   2.298   4.452  1.1527 -1.4774 -0.1489
 4291SOL    HW214294   2.594   2.289   4.600  0.7638  0.4221 -0.0863
 4292SOL     OW14295   1.068   6.652   0.900 -0.0910  0.2907 -0.3574
 4292SOL    HW114296   1.159   6.666   0.875  0.0868  0.8924  0.5527
 4292SOL    HW214297   1.066   6.674   0.993 -1.3689  1.2658 -0.5903
 4293SOL     OW14298   4.815   3.292   5.514  0.1219  0.0643 -0.3352
 4293SOL    HW114299   4.765   3.214   5.490 -0.3759  0.4300 -0.5030
 4293SOL    HW214300   4.886   3.259   5.569 -0.5167 -0.4235  0.2182
 4294SOL     OW14301   3.101   2.522   0.444 -0.5071 -0.2073 -0.4849
 4294SOL    HW114302   3.142   2.479   0.370 -1.6262 -1.3461 -0.4842
 4294SOL    HW214303   3.134   2.475   0.521 -1.2353 -0.6567 -0.4382
 4295SOL     OW14304   1.360   4.683   0.856 -0.0836 -0.3922  0.5621
 4295SOL    HW114305   1.338   4.604   0.807  0.0728 -0.0090 -0.1413
 4295SOL    HW214306   1.399   4.651   0.937  1.1600 -1.0537 -0.2652
 4296SOL     OW14307   0.408   4.398   3.290  0.3917 -0.1796 -0.7494
 4296SOL    HW114308   0.381   4.382   3.380  2.7558  2.3349  0.5848
 4296SOL    HW214309   0.421   4.311   3.253 -2.2186 -1.3171  0.7360
 4297SOL     OW14310   2.877   0.874   3.735 -0.0431  0.9927 -0.6193
 4297SOL    HW114311   2.942   0.908   3.797  0.8648  0.4845 -1.2701
 4297SOL    HW214312   2.796   0.867   3.786  0.6533  0.7055  0.4782
 4298SOL     OW14313   1.028   1.353   5.118  0.0232  0.4100 -0.1227
 4298SOL    HW114314   1.119   1.324   5.123  0.5408  1.4729 -2.0118
 4298SOL    HW214315   1.032   1.446   5.141 -0.3441  0.7743 -1.4321
 4299SOL     OW14316   7.078   5.536   1.839  0.0750  0.3606 -0.0650
 4299SOL    HW114317   7.026   5.537   1.919 -0.8556 -1.3720 -0.6004
 4299SOL    HW214318   7.125   5.620   1.840  1.2182 -0.1621  2.9983
 4300SOL     OW14319   4.535   3.015   4.834 -0.3607 -0.3781  0.1620
 4300SOL    HW114320   4.570   3.013   4.923 -1.2823 -0.2730  0.5498
 4300SOL    HW214321   4.606   3.048   4.780  0.1408 -0.2314  0.8996
 4301SOL     OW14322   6.425   5.740   7.170 -0.0496  0.5056 -0.0660
 4301SOL    HW114323   6.387   5.732   7.083  0.7091 -0.0955 -0.3465
 4301SOL    HW214324   6.519   5.747   7.155  0.2540 -1.2575  0.7647
 4302SOL     OW14325   0.684   0.358   6.480  0.2736 -0.3091 -0.6841
 4302SOL    HW114326   0.752   0.295   6.458  0.5525 -0.2022 -0.1333
 4302SOL    HW214327   0.664   0.341   6.572 -0.5596 -0.4484 -0.8785
 4303SOL     OW14328   3.431   0.110   2.498  0.4805 -0.3090 -0.2013
 4303SOL    HW114329   3.525   0.095   2.508  0.4250  0.7881  3.5493
 4303SOL    HW214330   3.425   0.189   2.445  1.6873 -0.2093 -0.2276
 4304SOL     OW14331   7.478   3.549   7.047  0.2060 -0.6242 -0.2108
 4304SOL    HW114332   7.466   3.458   7.017 -1.3437 -0.3409 -0.5876
 4304SOL    HW214333   7.455   3.602   6.970 -0.9081  0.0885  0.5736
 4305SOL     OW14334   4.028   5.987   5.515  0.0508 -0.4548 -0.0316
 4305SOL    HW114335   4.032   6.077   5.482 -1.5101 -0.1476  0.5302
 4305SOL    HW214336   3.982   5.938   5.446  0.2126 -0.6696  0.0083
 4306SOL     OW14337   3.547   1.330   8.006  0.2089  0.0605 -0.0899
 4306SOL    HW114338   3.526   1.271   8.079 -3.0465  1.3839  0.2300
 4306SOL    HW214339   3.596   1.275   7.944  0.7358 -1.8373  1.8596
 4307SOL     OW14340   1.328   5.905   5.495  0.4474  0.2145  1.0757
 4307SOL    HW114341   1.238   5.888   5.467  1.5610 -2.2991 -1.5189
 4307SOL    HW214342   1.333   5.870   5.584 -0.5903 -1.9152  0.3592
 4308SOL     OW14343   0.291   1.713   5.598 -0.1720  0.2935 -0.7142
 4308SOL    HW114344   0.323   1.787   5.547  0.4348 -0.4436 -1.4357
 4308SOL    HW214345   0.248   1.753   5.674  0.4314  1.3673 -0.9142
 4309SOL     OW14346   2.821   6.152   2.457 -0.0927  0.2535 -0.1125
 4309SOL    HW114347   2.770   6.115   2.384  0.2808 -0.6149  0.0563
 4309SOL    HW214348   2.880   6.081   2.483  0.4798  0.9048  0.3776
 4310SOL     OW14349   1.065   6.061   0.236 -0.7015 -0.5259 -0.1053
 4310SOL    HW114350   1.153   6.040   0.205  0.7055  0.9178  2.5444
 4310SOL    HW214351   1.036   6.132   0.180 -0.2555 -1.1263 -1.1201
 4311SOL     OW14352   1.031   7.753   0.054 -0.2510 -0.5304 -0.2460
 4311SOL    HW114353   0.972   7.818   0.093  0.0288 -0.6898  0.4575
 4311SOL    HW214354   0.973   7.691   0.011 -0.6872 -1.2250  1.2573
 4312SOL     OW14355   4.994   0.768   0.422  0.1477  0.2183 -0.0174
 4312SOL    HW114356   5.071   0.721   0.388 -0.5852  0.0780 -1.5983
 4312SOL    HW214357   4.929   0.759   0.352 -1.4219  0.0737  1.4059
 4313SOL     OW14358   7.723   0.584   1.306 -0.0412  0.3740  0.5287
 4313SOL    HW114359   7.742   0.623   1.221 -3.2864  0.6662 -0.1840
 4313SOL    HW214360   7.661   0.514   1.287  1.7533 -1.9081  2.3663
 4314SOL     OW14361   6.190   6.370   4.943  0.2910  0.3870  0.5797
 4314SOL    HW114362   6.144   6.416   4.873  0.8876 -0.1029 -0.1495
 4314SOL    HW214363   6.259   6.431   4.970 -0.6653  1.0661  1.5817
 4315SOL     OW14364   0.396   5.224   7.170  0.3908 -0.0153  0.1559
 4315SOL    HW114365   0.342   5.156   7.129 -0.0304  1.3596 -1.7526
 4315SOL    HW214366   0.480   5.217   7.125 -0.3524  2.0923 -1.7653
 4316SOL     OW14367   6.618   0.385   2.317 -0.1875 -0.0961 -0.2148
 4316SOL    HW114368   6.659   0.390   2.404  0.1707 -0.6057 -0.3494
 4316SOL    HW214369   6.540   0.441   2.324  0.9007  1.4935 -0.1660
 4317SOL     OW14370   5.099   5.458   4.383  0.1951 -0.1249  0.0702
 4317SOL    HW114371   5.099   5.480   4.289 -0.0204 -0.3876  0.0079
 4317SOL    HW214372   5.091   5.543   4.427 -0.5670 -0.0694 -0.1653
 4318SOL     OW14373   7.332   8.043   4.139 -0.3191 -0.1945  0.2234
 4318SOL    HW114374   7.359   7.960   4.099  0.9762 -0.4698  1.6060
 4318SOL    HW214375   7.401   8.063   4.202 -1.8796  0.6543  1.7198
 4319SOL     OW14376   0.563   7.893   4.132 -0.0229 -0.0140 -0.2383
 4319SOL    HW114377   0.530   7.920   4.218  0.6611  0.5993 -0.1590
 4319SOL    HW214378   0.517   7.948   4.070  2.0610  2.1576 -0.0227
 4320SOL     OW14379   2.168   1.720   5.814 -0.1777  0.4749 -0.3258
 4320SOL    HW114380   2.155   1.640   5.762  0.4361  0.6652 -0.7779
 4320SOL    HW214381   2.117   1.705   5.893  1.8081 -1.3984  0.7104
 4321SOL     OW14382   0.584   2.550   2.473 -0.4334  0.4988 -0.0749
 4321SOL    HW114383   0.651   2.493   2.435 -0.2666  0.1140  0.7567
 4321SOL    HW214384   0.507   2.494   2.482 -1.1666  1.1717 -1.8277
 4322SOL     OW14385   7.829   6.250   5.772 -0.1317 -0.1353  0.1912
 4322SOL    HW114386   7.801   6.173   5.821  0.9740 -1.3454 -1.0004
 4322SOL    HW214387   7.825   6.224   5.680  0.5424  1.1210 -0.2249
 4323SOL     OW14388   2.870   1.803   6.960 -0.1656 -0.0847  0.1179
 4323SOL    HW114389   2.920   1.800   7.041  0.5073 -0.8364 -0.3142
 4323SOL    HW214390   2.779   1.796   6.987  0.1154 -1.9650  0.7253
 4324SOL     OW14391   2.652   3.259   4.291 -0.0839  0.0920  0.6718
 4324SOL    HW114392   2.629   3.170   4.263 -0.0897  0.0476  0.8172
 4324SOL    HW214393   2.673   3.305   4.209 -0.1577 -0.0205  0.5891
 4325SOL     OW14394   4.319   3.915   3.716 -0.3804  0.2224 -0.4642
 4325SOL    HW114395   4.389   3.975   3.739  0.0816 -1.0403  1.7804
 4325SOL    HW214396   4.354   3.862   3.645 -0.5661  2.1193 -2.0372
 4326SOL     OW14397   4.520   7.344   5.680 -0.1616  0.5083 -0.2696
 4326SOL    HW114398   4.524   7.409   5.750 -0.2585 -0.8283  1.0082
 4326SOL    HW214399   4.611   7.332   5.654  0.0082  0.1056  0.4909
 4327SOL     OW14400   6.902   2.350   2.084 -0.8969  0.4363  0.0313
 4327SOL    HW114401   6.966   2.358   2.154 -0.8232  2.6951 -0.2316
 4327SOL    HW214402   6.948   2.303   2.014  0.4070  1.7790 -0.0487
 4328SOL     OW14403   0.724   7.149   6.595 -0.6058  0.1002 -0.4596
 4328SOL    HW114404   0.789   7.123   6.660  0.1791 -0.1536 -1.3273
 4328SOL    HW214405   0.701   7.238   6.619  0.1013  0.2133 -0.1673
 4329SOL     OW14406   3.643   0.603   6.245  0.3135 -0.0384 -0.1629
 4329SOL    HW114407   3.720   0.609   6.189  0.2133  0.6576 -0.2339
 4329SOL    HW214408   3.577   0.655   6.201  0.5481  1.4105  1.0922
 4330SOL     OW14409   4.300   2.168   6.679  0.0913 -0.0751 -0.8418
 4330SOL    HW114410   4.340   2.138   6.761 -1.8779 -0.9174 -0.1226
 4330SOL    HW214411   4.274   2.258   6.697  0.0736 -0.1063 -0.7041
 4331SOL     OW14412   1.416   2.727   3.044  0.1373 -0.3941 -0.2208
 4331SOL    HW114413   1.372   2.749   3.127  0.0974  2.6442 -0.9111
 4331SOL    HW214414   1.509   2.736   3.063  0.1303  0.2467 -0.4471
 4332SOL     OW14415   7.552   6.577   4.672 -0.6785 -0.1435 -0.3602
 4332SOL    HW114416   7.589   6.666   4.673  0.7565 -0.6959  1.6259
 4332SOL    HW214417   7.609   6.530   4.611 -0.2953 -0.1152 -0.0350
 4333SOL     OW14418   1.233   7.062   7.715  0.1279 -0.6173 -0.0054
 4333SOL    HW114419   1.296   7.029   7.779  1.6362  0.0165 -1.1113
 4333SOL    HW214420   1.268   7.035   7.630  0.1591  1.7279 -0.7931
 4334SOL     OW14421   6.606   2.269   1.472 -0.1771 -0.1414 -0.1369
 4334SOL    HW114422   6.539   2.316   1.422 -1.0600 -0.5558  0.6166
 4334SOL    HW214423   6.558   2.198   1.515  0.6942 -0.2693  0.6551
 4335SOL     OW14424   4.750   7.764   2.180  0.4482 -0.0613 -0.4115
 4335SOL    HW114425   4.817   7.768   2.248 -0.4123  1.4496  0.3917
 4335SOL    HW214426   4.791   7.806   2.104  1.2468 -1.3445 -0.7218
 4336SOL     OW14427   1.667   0.379   1.612  0.7961 -0.8020  0.8155
 4336SOL    HW114428   1.712   0.399   1.530 -0.6164  0.4007  0.2944
 4336SOL    HW214429   1.628   0.293   1.597 -1.0202  0.1877 -0.5385
 4337SOL     OW14430   7.425   2.322   7.298 -0.3297 -0.2694  0.0457
 4337SOL    HW114431   7.385   2.287   7.218 -1.4568  0.1727  0.4013
 4337SOL    HW214432   7.360   2.383   7.333  0.3781 -0.0447  1.0113
 4338SOL     OW14433   3.529   0.770   1.743  0.5005  0.3027  0.0252
 4338SOL    HW114434   3.537   0.703   1.675  0.7273  0.1392  0.2106
 4338SOL    HW214435   3.550   0.852   1.697 -2.3305  0.6383 -0.8409
 4339SOL     OW14436   5.486   1.107   5.615  0.3311 -0.2744 -0.0360
 4339SOL    HW114437   5.391   1.111   5.601  0.2699  0.5389  0.5122
 4339SOL    HW214438   5.519   1.053   5.543 -0.5111 -0.3009 -0.4133
 4340SOL     OW14439   4.155   4.726   3.646  0.6318 -0.0041  0.1532
 4340SOL    HW114440   4.088   4.710   3.580 -0.8849  3.4487  0.6698
 4340SOL    HW214441   4.234   4.686   3.610 -0.8376 -0.9616 -2.2436
 4341SOL     OW14442   1.221   3.708   5.468  0.0917  0.3995  0.0383
 4341SOL    HW114443   1.197   3.638   5.408 -0.4916  0.9426 -0.3688
 4341SOL    HW214444   1.171   3.784   5.438  1.4237  1.2527 -0.1151
 4342SOL     OW14445   2.304   1.589   3.231  0.2363  0.3279 -0.2793
 4342SOL    HW114446   2.388   1.607   3.273  1.0303  0.9307 -2.0189
 4342SOL    HW214447   2.268   1.514   3.278  1.5231  0.3636  0.8015
 4343SOL     OW14448   4.437   4.021   4.193  0.0806  0.6925  0.0616
 4343SOL    HW114449   4.391   3.954   4.243  0.7239  1.5471  1.8497
 4343SOL    HW214450   4.493   3.972   4.133 -2.0345 -0.3585 -1.2067
 4344SOL     OW14451   0.304   5.889   5.483 -0.1478  0.0024  0.3964
 4344SOL    HW114452   0.389   5.925   5.507 -0.5997  1.4268 -0.0170
 4344SOL    HW214453   0.242   5.960   5.502 -0.8974  0.0055 -1.7741
 4345SOL     OW14454   0.171   3.559   4.754  0.4018  0.0926 -0.0690
 4345SOL    HW114455   0.083   3.591   4.772  0.5269  0.3159  0.1452
 4345SOL    HW214456   0.159   3.492   4.687 -0.0285 -0.5072  0.5980
 4346SOL     OW14457   0.419   4.334   2.352 -0.4059  0.0830  0.4989
 4346SOL    HW114458   0.373   4.313   2.433  0.6906 -0.4693  0.9944
 4346SOL    HW214459   0.352   4.328   2.284 -1.1262 -0.3951  1.2411
 4347SOL     OW14460   1.507   6.471   7.684  0.6479 -0.3402 -0.0865
 4347SOL    HW114461   1.480   6.563   7.678  0.2798 -0.4672 -0.4104
 4347SOL    HW214462   1.495   6.437   7.595 -0.2784 -0.9897  0.2652
 4348SOL     OW14463   0.593   4.105   3.575  0.0750 -0.1098  0.0894
 4348SOL    HW114464   0.522   4.122   3.513  1.0112 -0.3166 -1.0926
 4348SOL    HW214465   0.616   4.191   3.609  1.5448  0.4944 -2.1835
 4349SOL     OW14466   2.845   3.863   3.674 -0.0377  0.1184 -0.2799
 4349SOL    HW114467   2.793   3.918   3.615 -0.9159 -0.7857 -0.3767
 4349SOL    HW214468   2.865   3.785   3.621 -0.6931 -0.6267  0.5397
 4350SOL     OW14469   3.559   7.023   3.067  0.4101 -0.6451 -0.0312
 4350SOL    HW114470   3.464   7.034   3.058  0.4300  0.4325  0.8227
 4350SOL    HW214471   3.581   6.955   3.004 -0.7625 -0.1201 -1.0522
 4351SOL     OW14472   3.354   5.172   2.546 -0.1319  0.2171  0.0834
 4351SOL    HW114473   3.327   5.223   2.470  1.1751  1.0366  0.1412
 4351SOL    HW214474   3.357   5.235   2.618  2.1823  0.2578  0.0085
 4352SOL     OW14475   6.567   7.050   3.967  0.4449  0.1028  0.5966
 4352SOL    HW114476   6.632   7.087   3.907 -1.2101 -1.1771 -2.1993
 4352SOL    HW214477   6.530   7.125   4.012 -0.1037  1.5329 -2.0362
 4353SOL     OW14478   2.281   6.628   1.987 -0.3073 -0.4943 -0.4375
 4353SOL    HW114479   2.249   6.712   2.019 -0.1368 -1.6579  3.2952
 4353SOL    HW214480   2.204   6.572   1.987 -0.2960 -0.5493 -2.2616
 4354SOL     OW14481   4.764   4.125   5.690 -0.2890  0.1464  0.1966
 4354SOL    HW114482   4.745   4.204   5.741 -1.7179 -1.0752  1.6701
 4354SOL    HW214483   4.844   4.090   5.729 -0.2639  0.2935  0.2777
 4355SOL     OW14484   7.620   6.052   1.798  0.3627 -0.2890 -0.4566
 4355SOL    HW114485   7.584   6.000   1.726 -0.7894  1.2403 -1.0359
 4355SOL    HW214486   7.572   6.021   1.876 -1.9160  1.2958 -1.1222
 4356SOL     OW14487   0.764   1.766   3.748  0.6291 -0.2404  0.5272
 4356SOL    HW114488   0.831   1.768   3.816  0.9608 -0.0207  0.1964
 4356SOL    HW214489   0.773   1.850   3.702  0.1855 -0.2448  0.4246
 4357SOL     OW14490   6.821   7.423   7.481  0.1664 -0.1298  0.1911
 4357SOL    HW114491   6.755   7.458   7.542 -1.2924 -1.9792 -0.2361
 4357SOL    HW214492   6.815   7.479   7.404 -1.7739 -0.9513 -0.2969
 4358SOL     OW14493   1.118   8.035   2.387 -0.3351  0.2915 -0.2084
 4358SOL    HW114494   1.062   8.102   2.347  0.1815  1.3620  0.8152
 4358SOL    HW214495   1.195   8.083   2.418 -0.3075 -0.6432  1.2601
 4359SOL     OW14496   6.028   6.861   7.318 -0.3976  0.1554  0.0599
 4359SOL    HW114497   6.089   6.802   7.364 -1.4728 -1.1314 -0.1064
 4359SOL    HW214498   5.999   6.811   7.242 -3.1298 -0.0906  1.1387
 4360SOL     OW14499   1.240   1.837   5.433 -0.0920 -0.5744  0.1889
 4360SOL    HW114500   1.304   1.769   5.411 -2.4597 -2.7678 -0.3697
 4360SOL    HW214501   1.242   1.897   5.360  1.4797 -0.4432  0.3046
 4361SOL     OW14502   8.022   1.827   3.734  0.2826 -0.1290 -0.0791
 4361SOL    HW114503   8.117   1.826   3.721  0.5703  0.2894  1.7831
 4361SOL    HW214504   8.008   1.779   3.815 -1.1869 -0.8076 -0.6957
 4362SOL     OW14505   0.291   2.988   5.653 -0.0915 -0.3883  0.2954
 4362SOL    HW114506   0.348   2.936   5.709 -0.6760 -2.5156 -0.9580
 4362SOL    HW214507   0.319   3.079   5.667  3.8037 -1.2926 -0.4592
 4363SOL     OW14508   1.597   1.753   7.801  1.0195 -0.6757  0.1619
 4363SOL    HW114509   1.614   1.659   7.807 -0.3925 -1.3012 -3.2825
 4363SOL    HW214510   1.502   1.760   7.794  1.1185  0.9904  0.0336
 4364SOL     OW14511   7.624   3.101   0.438 -0.2935  0.4696 -0.1041
 4364SOL    HW114512   7.632   3.016   0.395  2.4092  1.0860 -1.0227
 4364SOL    HW214513   7.668   3.089   0.522  0.2958  1.0113 -0.3338
 4365SOL     OW14514   0.361   0.954   1.915  0.5265 -0.6007 -0.8098
 4365SOL    HW114515   0.394   0.965   2.004  0.1564  0.3728 -0.7750
 4365SOL    HW214516   0.287   0.894   1.924 -0.4929  0.6784 -0.1957
 4366SOL     OW14517   6.602   7.286   4.751  0.5110  0.3327 -0.1336
 4366SOL    HW114518   6.677   7.232   4.774  0.1412 -0.3629 -0.5065
 4366SOL    HW214519   6.560   7.307   4.834  0.1724 -0.6896 -0.0331
 4367SOL     OW14520   5.341   1.026   0.213 -0.2586 -0.7435 -0.2786
 4367SOL    HW114521   5.250   1.056   0.220  0.7398  2.3429  1.3719
 4367SOL    HW214522   5.369   1.054   0.126 -0.1297  0.8102  0.2439
 4368SOL     OW14523   8.033   0.823   5.352 -0.0680 -0.2880  0.5848
 4368SOL    HW114524   8.039   0.745   5.408  0.0788 -2.3775 -2.1340
 4368SOL    HW214525   8.100   0.882   5.386  1.2691 -2.2201  1.4778
 4369SOL     OW14526   7.245   3.288   6.355  0.1206 -0.2992 -0.1188
 4369SOL    HW114527   7.272   3.307   6.265 -1.7078  1.6720 -0.3285
 4369SOL    HW214528   7.152   3.310   6.358  0.1584 -0.1389  2.2878
 4370SOL     OW14529   1.688   4.338   6.387  0.0867  0.2727  0.0767
 4370SOL    HW114530   1.675   4.433   6.391  0.4642  0.3365 -0.1578
 4370SOL    HW214531   1.743   4.319   6.463 -0.0811  0.2251  0.1864
 4371SOL     OW14532   2.041   3.429   3.575 -0.6519 -0.2661  0.0736
 4371SOL    HW114533   1.965   3.370   3.569 -1.6592  0.8793  0.9586
 4371SOL    HW214534   2.037   3.463   3.664  0.7667  0.0322  0.0405
 4372SOL     OW14535   1.219   1.277   0.853 -0.0089  0.6260 -0.6461
 4372SOL    HW114536   1.236   1.184   0.838 -0.2226  0.4913 -0.1063
 4372SOL    HW214537   1.295   1.322   0.818  1.2440  0.0855  1.2089
 4373SOL     OW14538   0.859   3.211   2.345  0.2559 -0.0937 -0.0447
 4373SOL    HW114539   0.829   3.237   2.259  0.5782 -3.6876 -1.4294
 4373SOL    HW214540   0.778   3.192   2.394  0.0675 -1.5951 -0.8793
 4374SOL     OW14541   6.984   0.339   7.136  0.0629 -0.4977 -0.2745
 4374SOL    HW114542   6.901   0.293   7.147  0.3161 -0.3845  3.1720
 4374SOL    HW214543   7.049   0.281   7.176  1.0258  0.9956  0.4213
 4375SOL     OW14544   5.448   1.618   6.768  0.2561 -0.2703  0.0304
 4375SOL    HW114545   5.444   1.610   6.673 -0.5445 -2.2888  0.1693
 4375SOL    HW214546   5.444   1.712   6.785  0.8894  0.1569 -1.9240
 4376SOL     OW14547   7.184   6.832   2.403  0.3499 -0.3532 -0.4152
 4376SOL    HW114548   7.181   6.782   2.322 -0.8944 -0.3623 -0.3797
 4376SOL    HW214549   7.112   6.797   2.456  0.2909  0.5611  0.1453
 4377SOL     OW14550   5.247   2.511   0.801  0.1313  0.3172  0.3024
 4377SOL    HW114551   5.262   2.472   0.887 -0.2452  1.8565  1.0835
 4377SOL    HW214552   5.153   2.506   0.788  0.2769 -0.8264 -0.4955
 4378SOL     OW14553   7.372   0.937   2.577 -0.1226 -0.0368 -0.3689
 4378SOL    HW114554   7.359   0.890   2.495 -0.3856 -1.1009  0.2617
 4378SOL    HW214555   7.338   1.025   2.560 -1.1712 -0.5524 -1.0740
 4379SOL     OW14556   5.570   6.557   0.462 -0.2096 -0.1777  0.2551
 4379SOL    HW114557   5.544   6.475   0.420  0.2079 -0.5536  0.7129
 4379SOL    HW214558   5.624   6.602   0.397 -1.5156  0.3521 -0.4901
 4380SOL     OW14559   0.644   3.533   3.150  0.0949 -0.3826  0.4138
 4380SOL    HW114560   0.661   3.449   3.108  0.7171 -0.2106  0.3182
 4380SOL    HW214561   0.713   3.541   3.216  0.9023  0.7002 -0.5352
 4381SOL     OW14562   5.242   8.043   5.777  0.2543 -0.0097 -0.0668
 4381SOL    HW114563   5.205   8.087   5.853  1.5501 -0.5929  0.9484
 4381SOL    HW214564   5.191   7.962   5.768  0.0695  0.0799  0.1749
 4382SOL     OW14565   7.472   5.239   4.014 -0.5012  0.1671  0.3220
 4382SOL    HW114566   7.530   5.279   3.949  0.4844 -0.8942  0.5147
 4382SOL    HW214567   7.449   5.310   4.074 -1.1182  1.0761 -0.9446
 4383SOL     OW14568   4.198   1.787   1.147  0.0356 -0.5190 -0.0729
 4383SOL    HW114569   4.161   1.834   1.072 -0.9872  0.6777  1.1242
 4383SOL    HW214570   4.129   1.790   1.213  1.8913  0.9734  1.9271
 4384SOL     OW14571   7.044   7.235   3.222 -0.0578 -0.3363  0.4923
 4384SOL    HW114572   7.127   7.189   3.210 -0.4301 -0.6075 -1.2545
 4384SOL    HW214573   6.978   7.166   3.229 -0.2755 -0.1004  0.8813
 4385SOL     OW14574   4.142   6.940   3.011  0.3651  0.1844 -0.6212
 4385SOL    HW114575   4.068   7.000   3.014 -0.6070 -0.8703 -2.1946
 4385SOL    HW214576   4.102   6.854   3.000  1.7885 -0.5592 -0.1830
 4386SOL     OW14577   5.176   4.093   5.394 -0.2939  0.2437 -0.3671
 4386SOL    HW114578   5.202   4.130   5.479 -0.5313 -0.7559  0.1642
 4386SOL    HW214579   5.191   3.999   5.404 -3.0524 -0.2839 -0.3866
 4387SOL     OW14580   0.627   4.348   0.261 -0.2171 -0.2712  0.3504
 4387SOL    HW114581   0.606   4.319   0.350  0.0716 -1.7363 -0.0242
 4387SOL    HW214582   0.544   4.337   0.213 -0.1586 -0.2903  0.2536
 4388SOL     OW14583   3.888   3.112   4.002 -0.1262 -0.1254  0.0228
 4388SOL    HW114584   3.797   3.139   4.013 -0.1990  0.0835 -0.9687
 4388SOL    HW214585   3.883   3.020   3.977 -0.1607  0.2150 -1.3144
 4389SOL     OW14586   0.830   2.392   0.769 -0.0672  0.0698  0.3615
 4389SOL    HW114587   0.850   2.325   0.704 -0.0535  0.7733 -0.3817
 4389SOL    HW214588   0.748   2.363   0.810 -0.0947 -0.3655  0.0033
 4390SOL     OW14589   0.881   0.615   4.300  0.2518 -0.0506 -0.9103
 4390SOL    HW114590   0.968   0.603   4.263  0.9008 -0.5257  0.6681
 4390SOL    HW214591   0.894   0.606   4.395 -1.5895 -0.6264 -0.6765
 4391SOL     OW14592   1.436   2.956   2.718  0.3022 -0.7539 -0.7650
 4391SOL    HW114593   1.345   2.969   2.691 -0.5425 -0.9720  1.7336
 4391SOL    HW214594   1.469   3.045   2.733  0.4529 -0.6877 -1.4431
 4392SOL     OW14595   5.453   1.922   6.227 -0.2821 -0.5459  0.3076
 4392SOL    HW114596   5.495   1.946   6.144  1.2863  0.3824  1.3219
 4392SOL    HW214597   5.378   1.981   6.233 -0.8789 -1.1570 -0.8006
 4393SOL     OW14598   1.482   2.030   1.823 -0.2905  0.1503 -0.4012
 4393SOL    HW114599   1.406   2.026   1.881 -1.7319  1.7705 -2.0701
 4393SOL    HW214600   1.496   1.939   1.796 -1.8183 -0.1429 -0.2861
 4394SOL     OW14601   0.790   6.708   1.389  0.1452  0.4639 -0.2129
 4394SOL    HW114602   0.790   6.799   1.358  0.8201 -0.0253 -1.7586
 4394SOL    HW214603   0.882   6.683   1.391 -0.0705 -0.4576 -0.7240
 4395SOL     OW14604   6.112   2.958   7.964 -0.5793  0.1258  0.3059
 4395SOL    HW114605   6.188   2.957   7.906 -1.9512  0.6167 -1.6145
 4395SOL    HW214606   6.109   3.047   7.998 -0.0191 -0.0378  0.7951
 4396SOL     OW14607   3.325   7.806   7.206 -0.2241 -0.2386  0.2985
 4396SOL    HW114608   3.254   7.868   7.220  0.4600  0.2663  1.7988
 4396SOL    HW214609   3.404   7.854   7.230  0.7475 -0.5631 -1.9670
 4397SOL     OW14610   5.057   6.510   0.414  0.5454  0.2355 -0.5324
 4397SOL    HW114611   5.008   6.428   0.418  0.1412  0.4618 -0.8208
 4397SOL    HW214612   5.055   6.543   0.504  1.2768 -0.3903 -0.2664
 4398SOL     OW14613   5.591   0.149   5.329 -0.2357  0.1062 -0.4877
 4398SOL    HW114614   5.565   0.118   5.416 -1.0244 -0.4505 -0.9072
 4398SOL    HW214615   5.508   0.162   5.283  0.1809  0.2502 -1.2075
 4399SOL     OW14616   2.520   2.180   3.101  0.3491 -0.1159  0.5636
 4399SOL    HW114617   2.580   2.114   3.066  0.9730  0.8359 -0.2331
 4399SOL    HW214618   2.532   2.255   3.044 -2.9493 -0.4556 -0.7780
 4400SOL     OW14619   5.963   2.709   2.198 -0.4895 -0.2566 -0.7976
 4400SOL    HW114620   5.927   2.758   2.272  1.0113 -0.0650 -0.1562
 4400SOL    HW214621   5.928   2.754   2.121  0.2885  1.4522 -0.2247
 4401SOL     OW14622   1.768   6.937   3.248 -0.2348 -0.1081 -0.5481
 4401SOL    HW114623   1.697   6.880   3.219  0.4849 -0.6434 -1.2854
 4401SOL    HW214624   1.784   6.996   3.175 -1.3184  1.4166  0.3949
 4402SOL     OW14625   1.246   3.061   2.337  0.1919 -0.3494  0.1113
 4402SOL    HW114626   1.316   3.000   2.315 -0.0414 -0.7350  0.4296
 4402SOL    HW214627   1.292   3.139   2.369  0.5092 -0.0794 -0.9621
 4403SOL     OW14628   2.896   2.346   5.848 -0.0715 -0.4156 -0.2195
 4403SOL    HW114629   2.986   2.377   5.863  0.1400 -0.2912 -1.6179
 4403SOL    HW214630   2.896   2.317   5.757 -1.1703 -1.4449  0.0863
 4404SOL     OW14631   4.690   0.643   4.142  0.1392  0.4646 -0.4268
 4404SOL    HW114632   4.736   0.563   4.167 -0.7747  0.0266 -0.0882
 4404SOL    HW214633   4.598   0.625   4.163 -0.2809  1.0911 -1.5966
 4405SOL     OW14634   3.002   7.822   6.600  0.1489  0.1598 -0.0422
 4405SOL    HW114635   3.094   7.794   6.596 -0.2089 -1.0580 -0.1189
 4405SOL    HW214636   3.003   7.897   6.660  1.3015  0.6588 -0.6501
 4406SOL     OW14637   7.365   7.863   3.764 -0.0999 -0.3922  0.0719
 4406SOL    HW114638   7.362   7.873   3.668 -1.4898 -0.0444  0.1238
 4406SOL    HW214639   7.291   7.805   3.784  1.9595 -2.9560  0.7084
 4407SOL     OW14640   4.410   7.082   0.592  0.4294  0.7058 -0.4948
 4407SOL    HW114641   4.452   7.075   0.506  2.4808  1.6647  0.3305
 4407SOL    HW214642   4.451   7.013   0.644 -1.6113 -0.5953 -0.5426
 4408SOL     OW14643   1.414   7.562   2.157 -0.1087 -0.3098  0.4103
 4408SOL    HW114644   1.319   7.573   2.161  0.0432  1.0874  0.8132
 4408SOL    HW214645   1.437   7.526   2.243 -0.2928 -0.7911  0.2576
 4409SOL     OW14646   1.588   3.760   2.062 -0.5928 -0.0234 -0.0489
 4409SOL    HW114647   1.624   3.693   2.121  1.4215  0.1286 -1.0231
 4409SOL    HW214648   1.510   3.719   2.024 -1.3692 -0.5059  1.9049
 4410SOL     OW14649   4.357   3.193   0.500 -0.4400 -0.7338  0.3986
 4410SOL    HW114650   4.410   3.205   0.579  2.5137 -1.2505 -1.3352
 4410SOL    HW214651   4.351   3.280   0.461 -0.3203 -0.7673  0.3022
 4411SOL     OW14652   7.032   1.924   5.737 -0.2590  0.5877  0.8501
 4411SOL    HW114653   6.983   1.865   5.679  2.7641 -3.9417  2.3467
 4411SOL    HW214654   7.069   1.990   5.678 -1.7704 -0.4485 -1.4448
 4412SOL     OW14655   7.500   0.288   2.466  0.4284 -0.2058  0.5475
 4412SOL    HW114656   7.462   0.274   2.379  0.4401 -1.1223  0.6753
 4412SOL    HW214657   7.433   0.258   2.527  0.9995 -1.0376  0.7997
 4413SOL     OW14658   7.681   2.579   2.451  0.2083  1.1231  0.3007
 4413SOL    HW114659   7.626   2.528   2.511  1.0746 -1.7878 -1.1576
 4413SOL    HW214660   7.735   2.633   2.508 -1.6553  1.4189  1.9035
 4414SOL     OW14661   4.558   4.339   0.846  0.0497  0.0609  0.4004
 4414SOL    HW114662   4.573   4.245   0.842  0.6029  0.1628  0.0164
 4414SOL    HW214663   4.463   4.348   0.844 -0.0024 -0.4260 -1.2965
 4415SOL     OW14664   7.577   0.833   6.054  0.0246  0.0344  0.4146
 4415SOL    HW114665   7.590   0.750   6.009 -0.3646 -0.2285  0.7829
 4415SOL    HW214666   7.642   0.832   6.125 -0.5893 -0.3610  0.9777
 4416SOL     OW14667   3.784   2.617   2.423 -0.5462 -0.0480  0.7592
 4416SOL    HW114668   3.830   2.557   2.364  0.2360  0.9768  0.2990
 4416SOL    HW214669   3.700   2.632   2.380  0.3384  1.3396 -0.5604
 4417SOL     OW14670   7.036   4.724   6.414  0.5391 -0.5180 -0.0245
 4417SOL    HW114671   7.074   4.655   6.358 -3.3029 -0.8746 -2.5780
 4417SOL    HW214672   6.986   4.677   6.480  2.2269 -0.0421  1.7007
 4418SOL     OW14673   5.229   2.440   6.591 -0.2409 -0.0004  0.3097
 4418SOL    HW114674   5.143   2.474   6.617  0.2854  0.7186  1.1346
 4418SOL    HW214675   5.276   2.516   6.557 -0.1438 -0.5156 -0.7362
 4419SOL     OW14676   1.678   7.346   7.840  0.3352 -0.0899  0.1168
 4419SOL    HW114677   1.622   7.344   7.762  1.2766  1.2403 -0.6324
 4419SOL    HW214678   1.761   7.382   7.809  0.2022  2.1299  2.0438
 4420SOL     OW14679   2.244   3.156   0.507 -0.2596  0.3461 -0.4153
 4420SOL    HW114680   2.160   3.133   0.546 -0.2195  2.2651  0.9148
 4420SOL    HW214681   2.299   3.078   0.520 -0.9129  0.1564  1.4597
 4421SOL     OW14682   1.414   3.892   7.063  0.1520 -0.1239  0.0337
 4421SOL    HW114683   1.436   3.804   7.033  1.9148  0.1417  0.4032
 4421SOL    HW214684   1.340   3.880   7.123 -0.4046 -1.1854 -0.8402
 4422SOL     OW14685   5.663   3.662   4.136 -0.1665 -0.1411  0.1461
 4422SOL    HW114686   5.572   3.692   4.134 -0.3176 -0.4218  1.5655
 4422SOL    HW214687   5.677   3.633   4.227  0.7962 -1.7988 -0.4867
 4423SOL     OW14688   2.993   2.490   3.450 -0.6746 -0.1293  0.1851
 4423SOL    HW114689   2.915   2.534   3.416 -0.8795  0.2220  1.0758
 4423SOL    HW214690   2.972   2.397   3.443 -0.5403 -0.0901 -1.0080
 4424SOL     OW14691   3.962   7.305   6.936 -0.4617 -0.4133 -0.1868
 4424SOL    HW114692   3.928   7.310   7.026  1.8441 -0.0381  0.7392
 4424SOL    HW214693   3.982   7.395   6.913 -0.5843 -0.5604 -0.8764
 4425SOL     OW14694   2.228   4.350   7.452  0.3835  0.1797  0.1353
 4425SOL    HW114695   2.204   4.414   7.518 -1.6343 -1.2287  0.8918
 4425SOL    HW214696   2.190   4.384   7.371 -0.1408  0.2633  0.4081
 4426SOL     OW14697   4.397   4.368   7.371 -0.6354 -0.0435  0.2543
 4426SOL    HW114698   4.431   4.286   7.335 -4.1255 -1.0939 -1.0256
 4426SOL    HW214699   4.457   4.435   7.339  0.9478 -1.8237 -0.6869
 4427SOL     OW14700   4.399   6.586   1.752 -0.0499  0.1645  0.0905
 4427SOL    HW114701   4.475   6.528   1.741  0.1978  0.4544  0.2408
 4427SOL    HW214702   4.330   6.546   1.699  0.2901  0.0362 -0.2655
 4428SOL     OW14703   5.757   3.777   6.551 -0.0955 -0.4253  0.6161
 4428SOL    HW114704   5.824   3.781   6.483 -0.0307  0.5726  0.7257
 4428SOL    HW214705   5.679   3.813   6.510 -0.0401  0.2447  1.0781
 4429SOL     OW14706   0.877   0.150   2.737  0.6988 -0.5590 -0.0867
 4429SOL    HW114707   0.875   0.245   2.731 -1.0825 -0.6191 -1.2904
 4429SOL    HW214708   0.843   0.130   2.824  0.5396 -0.0931 -0.0391
 4430SOL     OW14709   0.548   0.468   4.023  0.1704  0.2422 -0.3151
 4430SOL    HW114710   0.610   0.528   4.064 -0.4654  0.0864  0.9163
 4430SOL    HW214711   0.468   0.520   4.012  0.1247  0.0854 -0.7245
 4431SOL     OW14712   2.741   3.293   5.641 -0.1910  0.6636  0.2028
 4431SOL    HW114713   2.812   3.232   5.659 -0.6185  0.2463  0.5009
 4431SOL    HW214714   2.769   3.376   5.681  0.2736  0.5953  0.0226
 4432SOL     OW14715   1.408   0.700   7.357 -0.2495  0.0539 -0.2115
 4432SOL    HW114716   1.401   0.605   7.352 -0.6919  0.1232 -1.5534
 4432SOL    HW214717   1.426   0.727   7.266 -1.6258  1.3415 -0.1543
 4433SOL     OW14718   7.299   2.843   3.675 -0.0550  0.0134 -0.2304
 4433SOL    HW114719   7.295   2.838   3.580  2.3755  0.4334 -0.4162
 4433SOL    HW214720   7.362   2.776   3.701 -0.6274 -0.0538  1.0878
 4434SOL     OW14721   2.731   3.894   8.055 -0.1154 -0.0535 -0.8568
 4434SOL    HW114722   2.649   3.849   8.073 -0.6741  0.8259 -1.0969
 4434SOL    HW214723   2.707   3.987   8.053  1.3179  0.4729  1.6211
 4435SOL     OW14724   1.133   1.337   3.594  0.0454 -0.7558  0.0840
 4435SOL    HW114725   1.129   1.288   3.512 -2.2098 -0.1716 -0.2053
 4435SOL    HW214726   1.186   1.414   3.573  3.4129 -2.7596  0.4758
 4436SOL     OW14727   6.960   4.461   2.718  0.3446 -0.4008 -0.1551
 4436SOL    HW114728   7.000   4.539   2.679  1.4641 -0.7850  0.1653
 4436SOL    HW214729   6.980   4.391   2.656  0.3217 -0.6275  0.0910
 4437SOL     OW14730   6.974   7.995   1.830  0.4054  0.6943 -0.4531
 4437SOL    HW114731   6.953   7.915   1.879 -1.5573  0.1369 -2.0771
 4437SOL    HW214732   7.070   7.994   1.822  0.4013 -1.9200 -1.0849
 4438SOL     OW14733   5.850   5.248   3.355 -0.4142  0.3575 -0.5184
 4438SOL    HW114734   5.809   5.306   3.419 -1.5219  1.4577 -2.1322
 4438SOL    HW214735   5.794   5.170   3.355  2.1553 -1.7691  3.0634
 4439SOL     OW14736   3.475   7.304   6.201 -0.2137  0.1957  0.1134
 4439SOL    HW114737   3.418   7.281   6.275 -1.7240 -0.6535 -1.2387
 4439SOL    HW214738   3.527   7.377   6.233  0.4349 -1.2297  2.5869
 4440SOL     OW14739   2.070   0.586   2.410  0.2976 -0.0610 -0.1828
 4440SOL    HW114740   2.114   0.501   2.402 -0.0496 -0.3034  0.3749
 4440SOL    HW214741   2.079   0.627   2.324 -0.7096 -1.2442 -0.8847
 4441SOL     OW14742   1.442   5.882   7.759  0.0913  0.1608  0.1542
 4441SOL    HW114743   1.353   5.868   7.789  0.4651  0.5365  1.4836
 4441SOL    HW214744   1.483   5.935   7.827  1.6349 -0.8641  0.0733
 4442SOL     OW14745   2.107   4.226   3.349 -0.1246  0.0188 -0.0345
 4442SOL    HW114746   2.165   4.154   3.375 -2.1279 -1.8010 -0.3586
 4442SOL    HW214747   2.108   4.224   3.254 -0.0240  0.5897 -0.0475
 4443SOL     OW14748   0.850   2.849   1.522 -0.3539  0.1813  0.2005
 4443SOL    HW114749   0.831   2.790   1.449 -2.7751  0.1108  0.8159
 4443SOL    HW214750   0.931   2.893   1.496 -1.1540  0.2139 -2.5740
 4444SOL     OW14751   2.072   6.980   3.277  0.0715 -0.2946 -0.5061
 4444SOL    HW114752   1.995   6.926   3.262 -0.1535 -0.1275  0.0025
 4444SOL    HW214753   2.038   7.056   3.326  0.7030 -0.6668  0.5377
 4445SOL     OW14754   1.301   1.126   1.139  0.3207  0.1605 -0.2877
 4445SOL    HW114755   1.275   1.187   1.209  1.4035 -0.5543  0.7764
 4445SOL    HW214756   1.397   1.123   1.145  0.3163 -1.3011 -0.6073
 4446SOL     OW14757   5.598   6.968   3.644 -0.8956  0.2654  0.1908
 4446SOL    HW114758   5.626   6.993   3.732 -0.3578  0.2759  0.0205
 4446SOL    HW214759   5.646   7.027   3.586  0.1678 -0.9569 -0.2048
 4447SOL     OW14760   4.282   6.394   2.956  0.2849  0.6616 -0.2427
 4447SOL    HW114761   4.206   6.336   2.966  0.4639  0.5254  0.3334
 4447SOL    HW214762   4.318   6.370   2.870  0.0419  0.2909 -0.2457
 4448SOL     OW14763   3.326   1.741   5.191  0.2205  0.0516 -0.3603
 4448SOL    HW114764   3.355   1.794   5.265  2.0136  0.2397 -1.1727
 4448SOL    HW214765   3.277   1.669   5.232 -1.4854  1.7669  0.7979
 4449SOL     OW14766   1.178   5.191   2.538  0.2363  0.0315 -0.2172
 4449SOL    HW114767   1.188   5.099   2.559 -1.3312 -0.1154  0.0027
 4449SOL    HW214768   1.180   5.236   2.622 -1.1982 -0.0569 -0.1082
 4450SOL     OW14769   1.716   1.255   5.332  0.3242  0.1911 -0.5356
 4450SOL    HW114770   1.757   1.340   5.347 -0.2576  0.6011 -1.2010
 4450SOL    HW214771   1.752   1.225   5.248 -1.3559  0.9664 -1.5825
 4451SOL     OW14772   0.491   1.970   3.291  0.1744 -0.3114 -0.2689
 4451SOL    HW114773   0.528   1.883   3.297  1.8778  0.4521  1.7922
 4451SOL    HW214774   0.507   2.009   3.378 -1.2864  1.7430 -0.8281
 4452SOL     OW14775   5.556   0.611   4.781  0.1448 -0.5584  0.5783
 4452SOL    HW114776   5.522   0.656   4.704  0.4873 -1.1420  0.0788
 4452SOL    HW214777   5.569   0.680   4.846 -1.2515 -0.2202  0.5188
 4453SOL     OW14778   6.728   4.486   3.898  0.3022 -0.1027  0.5131
 4453SOL    HW114779   6.691   4.398   3.901 -1.4972  0.6006  0.4894
 4453SOL    HW214780   6.740   4.504   3.805  1.6007 -0.6584  0.5543
 4454SOL     OW14781   3.797   6.795   1.454 -0.3102  0.6430  0.2762
 4454SOL    HW114782   3.744   6.719   1.433 -0.1407  0.7223 -0.5067
 4454SOL    HW214783   3.734   6.865   1.471 -0.5080 -0.0870  2.8414
 4455SOL     OW14784   3.639   7.809   0.875 -0.0577 -0.0115  0.0628
 4455SOL    HW114785   3.654   7.820   0.969 -0.1173  0.2409  0.0440
 4455SOL    HW214786   3.544   7.814   0.865  0.0278  1.7693 -0.2177
 4456SOL     OW14787   4.498   7.430   5.314 -0.8245  0.1546  0.0435
 4456SOL    HW114788   4.561   7.447   5.385 -0.3592 -0.6538 -0.1701
 4456SOL    HW214789   4.509   7.504   5.255 -0.3422  0.2130  0.2001
 4457SOL     OW14790   2.219   6.221   5.125  0.3405 -0.0120  0.0658
 4457SOL    HW114791   2.283   6.177   5.069  0.8180 -0.4523  0.9465
 4457SOL    HW214792   2.256   6.214   5.213 -0.5947  0.3301  0.4879
 4458SOL     OW14793   2.282   4.956   1.943 -0.2035  0.2723  0.0573
 4458SOL    HW114794   2.277   4.890   1.874 -2.2134  0.0376  0.3707
 4458SOL    HW214795   2.249   5.036   1.902 -1.4029  0.1327  0.6936
 4459SOL     OW14796   3.132   1.817   2.420  0.0860  0.2810  0.0989
 4459SOL    HW114797   3.066   1.769   2.371  2.5262 -2.7323 -0.5029
 4459SOL    HW214798   3.114   1.795   2.512  0.2275 -0.5292 -0.0612
 4460SOL     OW14799   2.458   1.765   5.851  0.1443  0.0009 -0.3119
 4460SOL    HW114800   2.365   1.780   5.834  0.1677 -0.2392 -0.6651
 4460SOL    HW214801   2.503   1.808   5.778  0.2383 -1.2350 -1.0210
 4461SOL     OW14802   0.640   0.780   6.450  0.0078 -0.5031 -0.2400
 4461SOL    HW114803   0.609   0.702   6.496 -1.0402 -0.3232 -0.6115
 4461SOL    HW214804   0.662   0.750   6.362 -1.1550 -0.2534 -0.6318
 4462SOL     OW14805   7.132   7.213   4.512  0.4931  0.1619 -0.3455
 4462SOL    HW114806   7.045   7.180   4.490 -0.7651  1.2158  2.6317
 4462SOL    HW214807   7.193   7.150   4.472 -1.5869 -0.7759 -2.2323
 4463SOL     OW14808   1.881   3.634   4.184  0.6484  0.2884  0.5599
 4463SOL    HW114809   1.861   3.705   4.123  1.6331  0.0909 -0.0203
 4463SOL    HW214810   1.805   3.630   4.243  0.4853  1.6777  0.4741
 4464SOL     OW14811   3.165   6.489   3.125  0.0204  0.3447 -0.1998
 4464SOL    HW114812   3.083   6.537   3.139  0.6316  1.6978 -1.0744
 4464SOL    HW214813   3.138   6.409   3.080 -0.8828  0.4865  0.0644
 4465SOL     OW14814   7.634   7.709   2.534  0.0587  0.6434 -0.3934
 4465SOL    HW114815   7.676   7.668   2.458  1.0991  0.9600 -0.0018
 4465SOL    HW214816   7.702   7.711   2.601 -1.3963 -1.4241  1.2717
 4466SOL     OW14817   2.854   1.847   6.006  0.2711  0.3412 -0.0560
 4466SOL    HW114818   2.869   1.937   5.976  1.3720  0.4010  0.6047
 4466SOL    HW214819   2.831   1.799   5.926  1.8068  0.7814 -0.8103
 4467SOL     OW14820   6.709   2.237   0.174 -0.3792  0.4913 -0.2648
 4467SOL    HW114821   6.740   2.150   0.148  1.1459  0.4321  1.4994
 4467SOL    HW214822   6.614   2.228   0.179 -0.2404 -1.1404  0.0068
 4468SOL     OW14823   2.108   3.176   1.316 -0.2359 -0.6741 -0.3928
 4468SOL    HW114824   2.112   3.263   1.356  1.2489  0.0432 -1.9742
 4468SOL    HW214825   2.181   3.128   1.357 -0.5597 -0.9263 -0.1050
 4469SOL     OW14826   3.466   1.076   0.061  0.3080  0.6366 -0.2978
 4469SOL    HW114827   3.419   0.994   0.044  0.4152  0.3455  0.7388
 4469SOL    HW214828   3.558   1.054   0.049  0.2740  0.8645 -1.0012
 4470SOL     OW14829   2.384   0.467   5.183 -0.1325 -0.5141 -0.0914
 4470SOL    HW114830   2.458   0.431   5.135 -0.0834 -1.4652  0.6844
 4470SOL    HW214831   2.415   0.476   5.273 -0.3934  0.7713 -0.1063
 4471SOL     OW14832   3.339   1.893   1.427 -0.5335  0.2050  0.7333
 4471SOL    HW114833   3.248   1.922   1.431 -1.1336 -1.5814  3.1780
 4471SOL    HW214834   3.334   1.804   1.392  0.2833  0.1759  0.6726
 4472SOL     OW14835   4.357   2.223   3.497 -0.0269  0.2283 -0.5758
 4472SOL    HW114836   4.306   2.301   3.517 -0.2123  0.0778 -0.4539
 4472SOL    HW214837   4.446   2.255   3.483 -0.5222  0.7509 -2.8138
 4473SOL     OW14838   0.060   7.720   2.969 -0.3077  0.2353 -0.0444
 4473SOL    HW114839   0.085   7.812   2.959  0.8234 -0.0591 -0.0905
 4473SOL    HW214840   0.045   7.710   3.063 -1.7076  0.7634 -0.1952
 4474SOL     OW14841   1.538   5.859   2.486 -0.0588 -0.5735  0.5893
 4474SOL    HW114842   1.627   5.827   2.469  0.3764  1.5456 -1.7616
 4474SOL    HW214843   1.551   5.949   2.516 -1.3560 -1.2820  3.6397
 4475SOL     OW14844   4.643   4.082   0.834  0.0247  0.0811  0.0886
 4475SOL    HW114845   4.692   4.041   0.762  1.8184  1.5360  0.4028
 4475SOL    HW214846   4.696   4.065   0.912 -1.4371 -0.6883  0.9535
 4476SOL     OW14847   4.794   4.013   0.624  0.4165 -0.7501  0.4204
 4476SOL    HW114848   4.882   4.037   0.598  0.1428  0.0415  0.1919
 4476SOL    HW214849   4.739   4.086   0.596 -0.6075 -2.0637 -1.2217
 4477SOL     OW14850   7.331   2.988   7.161  0.2929 -0.1205 -0.1535
 4477SOL    HW114851   7.396   3.030   7.105  2.5591 -1.1380  1.5232
 4477SOL    HW214852   7.297   3.059   7.216 -1.0723  0.6587 -1.8956
 4478SOL     OW14853   7.026   2.709   4.996 -0.5210  0.5889 -0.8827
 4478SOL    HW114854   6.934   2.736   4.987 -0.7207  0.6878  1.0007
 4478SOL    HW214855   7.075   2.791   5.000 -0.7499  0.6701  1.3912
 4479SOL     OW14856   6.954   3.128   4.860 -0.3857 -0.1706  0.4902
 4479SOL    HW114857   7.025   3.190   4.878  0.3904 -0.1435 -2.2563
 4479SOL    HW214858   6.874   3.177   4.880  0.2673  1.0250  0.2567
 4480SOL     OW14859   5.683   1.409   1.838 -0.7831 -0.2949 -0.1055
 4480SOL    HW114860   5.724   1.448   1.916  0.4430  0.1358 -0.9461
 4480SOL    HW214861   5.745   1.343   1.808 -1.0135 -0.1151 -1.0128
 4481SOL     OW14862   7.571   0.525   4.633 -0.4466  0.0750 -0.8720
 4481SOL    HW114863   7.557   0.450   4.575 -1.2041 -0.4494 -0.0553
 4481SOL    HW214864   7.515   0.506   4.709 -2.1477  2.3887 -1.4575
 4482SOL     OW14865   0.966   4.833   6.177  0.1484  0.6280  0.3495
 4482SOL    HW114866   0.972   4.814   6.084 -0.8471 -0.7583  0.5363
 4482SOL    HW214867   0.900   4.902   6.183  1.4335  1.9271 -0.0853
 4483SOL     OW14868   3.278   0.880   4.027  0.8724 -0.4461 -0.1207
 4483SOL    HW114869   3.269   0.870   4.122 -1.0722  3.8643  0.3910
 4483SOL    HW214870   3.356   0.935   4.017  0.0737  0.6053 -0.7836
 4484SOL     OW14871   0.597   6.661   7.443  0.0220  0.4504  0.9472
 4484SOL    HW114872   0.547   6.629   7.368  3.2570 -0.3048 -1.1239
 4484SOL    HW214873   0.632   6.581   7.483  1.3092  1.0084  0.9703
 4485SOL     OW14874   1.697   0.363   5.829  0.9319 -0.0622  0.3350
 4485SOL    HW114875   1.615   0.371   5.781  1.4533 -1.8174 -0.9597
 4485SOL    HW214876   1.719   0.452   5.856 -1.6073  0.4007  1.1502
 4486SOL     OW14877   7.380   4.394   4.760 -0.2805 -0.1934 -0.2878
 4486SOL    HW114878   7.368   4.340   4.682  1.4310  0.6921 -1.2334
 4486SOL    HW214879   7.389   4.332   4.832  0.4710 -1.1382 -1.1670
 4487SOL     OW14880   0.007   8.010   6.127  0.6161  0.0875  0.1571
 4487SOL    HW114881  -0.035   8.061   6.058 -1.5699 -2.6339 -0.7135
 4487SOL    HW214882   0.078   7.963   6.084 -0.2301 -0.9852 -0.1043
 4488SOL     OW14883   6.559   1.664   0.593  0.1266  0.1690 -0.3869
 4488SOL    HW114884   6.494   1.600   0.565 -0.3919 -0.3199  1.7734
 4488SOL    HW214885   6.509   1.745   0.608  0.1792  0.0879  0.2576
 4489SOL     OW14886   2.470   5.845   6.875 -0.0360  0.5247 -0.3932
 4489SOL    HW114887   2.392   5.793   6.855  0.7811 -0.3128 -1.5434
 4489SOL    HW214888   2.444   5.901   6.948 -1.7269  0.2944 -0.7802
 4490SOL     OW14889   5.991   5.351   6.024  0.3996  0.1143  0.2279
 4490SOL    HW114890   5.915   5.409   6.025  0.1756 -0.1889  1.3007
 4490SOL    HW214891   5.966   5.280   5.965 -0.5891 -0.5339  1.3813
 4491SOL     OW14892   3.399   2.061   4.752  0.2663  0.0357  0.3166
 4491SOL    HW114893   3.313   2.036   4.718  0.3468 -1.6532  1.2332
 4491SOL    HW214894   3.433   1.980   4.791  2.1587  0.7364  0.1997
 4492SOL     OW14895   5.277   6.104   6.179 -0.7917 -0.4491  0.2501
 4492SOL    HW114896   5.292   6.079   6.087 -0.8330  0.2274  0.0574
 4492SOL    HW214897   5.325   6.186   6.189  0.9800 -1.5611  1.4161
 4493SOL     OW14898   7.191   4.656   0.501 -0.3125  1.1578 -0.1907
 4493SOL    HW114899   7.107   4.672   0.459 -0.1217  2.6062 -0.0770
 4493SOL    HW214900   7.241   4.607   0.435 -0.5694  2.0081 -1.0390
 4494SOL     OW14901   4.530   1.273   0.471 -0.5277 -0.0040  0.1130
 4494SOL    HW114902   4.481   1.235   0.544 -2.2107 -0.4985 -1.2122
 4494SOL    HW214903   4.552   1.362   0.499 -0.3276 -0.4933  1.5570
 4495SOL     OW14904   0.023   4.287   1.380 -0.5548 -0.5281 -0.2242
 4495SOL    HW114905  -0.004   4.245   1.462  2.6017 -1.0099  0.6705
 4495SOL    HW214906   0.035   4.379   1.403  1.5156 -0.8807  0.2194
 4496SOL     OW14907   4.415   7.965   0.611 -0.1925  0.6536 -0.0318
 4496SOL    HW114908   4.498   7.922   0.591  0.0129  0.9360  0.2069
 4496SOL    HW214909   4.391   7.930   0.697 -0.8271 -0.1865 -0.5303
 4497SOL     OW14910   0.018   7.280   3.777  0.4624  0.1426  0.1940
 4497SOL    HW114911   0.053   7.246   3.860 -1.9991 -1.2993  0.7387
 4497SOL    HW214912   0.015   7.203   3.720  0.8624  0.8479 -0.7990
 4498SOL     OW14913   7.959   1.447   2.063 -0.1647 -0.2482  0.1092
 4498SOL    HW114914   7.930   1.436   2.154  0.7133 -0.5812  0.3596
 4498SOL    HW214915   7.881   1.428   2.011 -0.2672 -1.7002  0.7462
 4499SOL     OW14916   2.426   2.765   6.045  0.5298 -0.0981  0.5942
 4499SOL    HW114917   2.364   2.800   5.981  1.3830  1.0092  0.3319
 4499SOL    HW214918   2.389   2.789   6.130  0.6272  0.6408  0.4370
 4500SOL     OW14919   3.151   0.542   6.449  0.4332 -0.1538  0.4498
 4500SOL    HW114920   3.122   0.615   6.504  1.7313  1.2211 -0.6165
 4500SOL    HW214921   3.168   0.471   6.511 -0.7932  0.4509  1.5239
 4501SOL     OW14922   0.909   7.142   0.428 -0.0394  0.5435  0.4466
 4501SOL    HW114923   0.970   7.159   0.357  1.1704 -1.0608  1.0386
 4501SOL    HW214924   0.911   7.047   0.440 -1.6571  0.5838  1.3757
 4502SOL     OW14925   6.698   7.283   1.939 -0.2070 -0.1261 -0.1139
 4502SOL    HW114926   6.740   7.369   1.946 -0.2114 -0.0244 -1.1242
 4502SOL    HW214927   6.607   7.303   1.919 -0.6947 -0.3511  1.7229
 4503SOL     OW14928   7.355   7.691   6.138 -0.3886  0.2337  0.2399
 4503SOL    HW114929   7.362   7.673   6.044 -2.7086  0.4767 -0.0317
 4503SOL    HW214930   7.377   7.608   6.180  1.8960  0.4433 -0.4139
 4504SOL     OW14931   7.026   4.202   1.296 -0.4973 -0.4030  0.5456
 4504SOL    HW114932   7.084   4.277   1.283 -1.5498  0.4149  0.4313
 4504SOL    HW214933   7.061   4.157   1.373  0.5317 -0.1786  0.2244
 4505SOL     OW14934   1.154   6.295   2.132 -0.0251 -0.5231  0.3625
 4505SOL    HW114935   1.131   6.344   2.054 -0.2591  0.1181  0.8300
 4505SOL    HW214936   1.091   6.223   2.135  0.3467 -0.8899 -0.3457
 4506SOL     OW14937   4.633   1.411   5.600 -0.2447  0.1593  0.3178
 4506SOL    HW114938   4.558   1.353   5.614  0.6492 -0.9755  0.5300
 4506SOL    HW214939   4.681   1.409   5.682  0.7169 -0.1579 -0.2410
 4507SOL     OW14940   1.658   3.058   7.993  0.1492 -0.1488 -0.6299
 4507SOL    HW114941   1.644   2.972   7.952  1.7220  0.2129 -2.0621
 4507SOL    HW214942   1.706   3.039   8.073 -0.9009 -0.6964 -0.1042
 4508SOL     OW14943   4.142   2.383   4.792  0.7783 -0.1938  0.1286
 4508SOL    HW114944   4.145   2.468   4.749 -0.2408 -0.8280 -1.2770
 4508SOL    HW214945   4.228   2.345   4.779  0.9525  0.2525 -0.0187
 4509SOL     OW14946   5.501   5.712   0.344 -0.1447 -0.5910 -0.1772
 4509SOL    HW114947   5.589   5.678   0.328 -0.1825 -0.8135  0.0872
 4509SOL    HW214948   5.453   5.692   0.264  0.7864  2.0423 -1.5084
 4510SOL     OW14949   7.744   3.341   2.924  0.6628  0.2104 -0.1622
 4510SOL    HW114950   7.827   3.389   2.928  0.8143  0.0600 -1.2911
 4510SOL    HW214951   7.756   3.276   2.856  0.5739 -1.7225  1.5568
 4511SOL     OW14952   6.074   6.598   4.314  0.1399  0.1913 -0.6313
 4511SOL    HW114953   6.038   6.509   4.321  1.7580 -0.4131  0.6803
 4511SOL    HW214954   6.169   6.586   4.323  0.4921  1.9634 -1.5039
 4512SOL     OW14955   5.732   4.543   6.877  0.2720 -0.3473  0.2379
 4512SOL    HW114956   5.822   4.564   6.900  0.3108  2.2416 -1.8385
 4512SOL    HW214957   5.740   4.473   6.812  0.7867 -0.2384  0.1768
 4513SOL     OW14958   3.643   0.031   0.530  0.5790  0.4000 -0.1538
 4513SOL    HW114959   3.601   0.040   0.445  1.9424  0.6319 -0.8306
 4513SOL    HW214960   3.737   0.041   0.512  0.8900  0.5175  1.3821
 4514SOL     OW14961   6.092   7.236   5.674  0.1967 -0.2464 -0.0357
 4514SOL    HW114962   6.052   7.313   5.713 -0.2711  0.3808 -1.6847
 4514SOL    HW214963   6.172   7.222   5.724 -1.9286 -1.5332  3.3724
 4515SOL     OW14964   1.225   4.164   0.032  0.5893 -0.1331 -0.0793
 4515SOL    HW114965   1.201   4.247  -0.010  1.4905  0.2750  0.1843
 4515SOL    HW214966   1.157   4.150   0.097  1.5298  1.5175  1.3489
 4516SOL     OW14967   7.079   4.731   1.594  0.2751  0.1864 -0.2999
 4516SOL    HW114968   7.061   4.643   1.562 -1.5806 -0.1225  1.3701
 4516SOL    HW214969   7.137   4.719   1.669  0.6869  0.4727 -0.5657
 4517SOL     OW14970   2.206   6.049   2.117 -0.2431  0.1521 -0.1244
 4517SOL    HW114971   2.212   6.128   2.063 -1.4211 -0.0407 -0.5781
 4517SOL    HW214972   2.153   5.989   2.065  1.7869 -1.4940 -0.4053
 4518SOL     OW14973   2.327   7.180   1.886  0.6898 -0.4169  0.7319
 4518SOL    HW114974   2.331   7.276   1.894  0.0364 -0.4374  1.3503
 4518SOL    HW214975   2.236   7.162   1.863  0.8735 -0.8758  0.3660
 4519SOL     OW14976   6.018   3.015   4.892  0.2222 -0.6219  0.3799
 4519SOL    HW114977   6.038   3.103   4.923  3.6236 -0.4062 -1.8905
 4519SOL    HW214978   6.080   2.959   4.939 -0.0182 -1.4144 -0.2207
 4520SOL     OW14979   1.048   5.270   3.755 -0.2095  0.7717 -0.3413
 4520SOL    HW114980   0.974   5.284   3.814 -0.5828 -1.3395 -0.2197
 4520SOL    HW214981   1.095   5.196   3.794  1.2451  1.2393 -1.1237
 4521SOL     OW14982   6.776   1.626   2.636  0.5636 -0.7380  0.2127
 4521SOL    HW114983   6.713   1.691   2.666  1.6603 -0.0979  1.2172
 4521SOL    HW214984   6.777   1.635   2.541 -0.6400 -0.5766  0.2056
 4522SOL     OW14985   0.938   3.517   3.510 -0.5631  0.6210 -0.2194
 4522SOL    HW114986   0.850   3.480   3.514 -1.4782  2.3915 -2.0269
 4522SOL    HW214987   0.991   3.448   3.470 -1.5664  0.2148 -0.9035
 4523SOL     OW14988   0.786   7.453   3.796 -0.2500  0.4130  0.1014
 4523SOL    HW114989   0.872   7.480   3.827  0.0575 -0.1419 -0.2594
 4523SOL    HW214990   0.741   7.536   3.778 -0.0899  0.7216  1.0583
 4524SOL     OW14991   2.582   1.916   4.178 -0.0961  0.6183  0.0408
 4524SOL    HW114992   2.618   1.928   4.266 -1.6962 -1.0130  0.9860
 4524SOL    HW214993   2.612   1.830   4.150  0.2982  1.0728 -0.9808
 4525SOL     OW14994   4.411   7.461   1.107 -0.0945  0.0280 -0.3631
 4525SOL    HW114995   4.446   7.391   1.052 -1.0200 -0.3403 -0.5013
 4525SOL    HW214996   4.362   7.516   1.046 -0.8387 -0.1863  0.0385
 4526SOL     OW14997   4.996   4.123   7.038  0.1783 -0.2390  0.2668
 4526SOL    HW114998   5.054   4.199   7.053  0.6065 -0.4949 -0.0638
 4526SOL    HW214999   4.942   4.119   7.117  0.9252 -0.2660  0.7980
 4527SOL     OW15000   0.129   6.170   1.968 -0.4516  0.0723 -0.2193
 4527SOL    HW115001   0.210   6.181   2.018 -0.0026 -0.7598 -0.7529
 4527SOL    HW215002   0.067   6.229   2.011  0.2769  0.3060  0.5415
 4528SOL     OW15003   4.183   4.038   2.756 -0.1440 -0.1391  0.2760
 4528SOL    HW115004   4.156   3.957   2.798  0.0817 -0.3006  0.1057
 4528SOL    HW215005   4.267   4.018   2.715  0.7255  0.6066  1.5801
 4529SOL     OW15006   2.188   6.477   4.180 -0.2732  0.0418  0.2757
 4529SOL    HW115007   2.157   6.389   4.158  0.5178  0.1019 -1.1936
 4529SOL    HW215008   2.109   6.531   4.177 -0.4138 -0.1918 -1.3239
 4530SOL     OW15009   7.420   7.117   4.674 -0.7490 -0.1176 -0.1858
 4530SOL    HW115010   7.351   7.145   4.735 -0.2891 -0.6463  0.5917
 4530SOL    HW215011   7.494   7.173   4.695 -0.0675 -1.3389  0.8669
 4531SOL     OW15012   5.238   3.413   7.357 -0.4735  0.3638  0.0613
 4531SOL    HW115013   5.170   3.352   7.387  0.0320 -0.2238  0.0399
 4531SOL    HW215014   5.193   3.473   7.298 -1.1378  0.4863  0.6808
 4532SOL     OW15015   0.145   6.833   2.588 -0.0846  0.0983 -0.4990
 4532SOL    HW115016   0.082   6.900   2.561  1.7084  2.7316  1.3611
 4532SOL    HW215017   0.230   6.868   2.560  0.8298 -2.1365 -0.7169
 4533SOL     OW15018   0.710   5.001   5.230  0.0739  0.2453  0.0773
 4533SOL    HW115019   0.691   4.913   5.197  1.4296 -0.5610  1.3594
 4533SOL    HW215020   0.794   5.024   5.191  0.4946  0.3061  1.0106
 4534SOL     OW15021   3.598   2.909   5.990  0.5167  0.8933  0.1848
 4534SOL    HW115022   3.537   2.839   6.015  0.7425 -0.3626 -2.4773
 4534SOL    HW215023   3.678   2.891   6.039  0.9197 -1.4001 -1.2032
 4535SOL     OW15024   1.720   2.190   3.715  0.8777 -0.9829 -0.4780
 4535SOL    HW115025   1.648   2.150   3.764 -0.7233  0.8735 -1.1562
 4535SOL    HW215026   1.708   2.284   3.727  1.5392 -0.5188 -2.8218
 4536SOL     OW15027   4.453   0.176   7.045  0.1968  0.2152  0.1607
 4536SOL    HW115028   4.491   0.240   7.105  0.0199 -1.6402  2.3957
 4536SOL    HW215029   4.441   0.224   6.963  1.4750  2.5764  1.2587
 4537SOL     OW15030   2.199   0.665   3.819 -0.3422 -0.0473 -0.2933
 4537SOL    HW115031   2.163   0.653   3.907 -0.1771 -0.7642 -0.3236
 4537SOL    HW215032   2.254   0.743   3.827 -0.4775  0.0039  0.1932
 4538SOL     OW15033   2.690   3.060   1.687  0.1954  0.1230 -0.0036
 4538SOL    HW115034   2.618   3.115   1.717 -0.1076  0.1139 -0.7039
 4538SOL    HW215035   2.668   3.037   1.597  2.4595  2.5404 -1.3097
 4539SOL     OW15036   6.337   6.064   3.717 -0.0893  0.2406  0.5568
 4539SOL    HW115037   6.372   5.993   3.663  0.4318  2.1614 -1.7922
 4539SOL    HW215038   6.262   6.024   3.762  0.0516 -1.7398 -0.8069
 4540SOL     OW15039   2.684   1.911   5.718 -0.5188 -0.0268 -0.3717
 4540SOL    HW115040   2.667   1.953   5.633  0.4183 -0.5907 -0.8620
 4540SOL    HW215041   2.778   1.891   5.716 -0.7352 -1.2010  0.2752
 4541SOL     OW15042   2.128   5.266   2.580 -0.6866 -0.3685 -0.3381
 4541SOL    HW115043   2.159   5.176   2.569 -0.6437 -0.4308  0.2996
 4541SOL    HW215044   2.197   5.320   2.541 -0.0800 -0.5463  0.4612
 4542SOL     OW15045   4.743   6.203   7.798 -0.2598 -0.4683  0.0111
 4542SOL    HW115046   4.808   6.147   7.757 -0.7816 -1.6259  0.6993
 4542SOL    HW215047   4.778   6.222   7.885  0.9625  2.1857 -0.9623
 4543SOL     OW15048   1.846   4.322   5.935 -0.3483 -0.1290 -0.5194
 4543SOL    HW115049   1.900   4.248   5.904  0.6188  0.2240  0.2751
 4543SOL    HW215050   1.809   4.292   6.018  0.4080  0.4273  0.0307
 4544SOL     OW15051   4.219   6.587   5.096  0.2668  0.4333  0.4381
 4544SOL    HW115052   4.312   6.590   5.073  0.7401 -0.5443  1.9970
 4544SOL    HW215053   4.200   6.673   5.134  0.8765  0.2440  1.2045
 4545SOL     OW15054   4.151   3.244   7.852 -0.4732 -0.5942 -0.1307
 4545SOL    HW115055   4.064   3.233   7.815 -0.8972  0.4370  0.5344
 4545SOL    HW215056   4.175   3.335   7.832  0.8262 -1.1062 -1.0809
 4546SOL     OW15057   3.746   6.294   1.969 -0.0474  0.2118 -0.1239
 4546SOL    HW115058   3.724   6.214   2.017 -0.5988  0.9765  0.9802
 4546SOL    HW215059   3.825   6.273   1.920  0.2069 -0.7969  0.6862
 4547SOL     OW15060   5.319   2.886   6.564 -0.4539 -0.2461 -0.1119
 4547SOL    HW115061   5.284   2.910   6.649 -2.3836  0.6917 -1.1080
 4547SOL    HW215062   5.325   2.969   6.516  0.0544 -0.8262 -1.0870
 4548SOL     OW15063   4.800   5.547   3.406 -0.5538 -0.0210 -0.5140
 4548SOL    HW115064   4.878   5.519   3.454 -0.2287  1.1600 -0.3175
 4548SOL    HW215065   4.777   5.631   3.445 -0.5877  0.7304 -2.0795
 4549SOL     OW15066   3.965   6.314   7.945 -0.4847  0.1448 -0.2346
 4549SOL    HW115067   4.011   6.381   7.896  0.4436 -0.6856 -0.5321
 4549SOL    HW215068   3.892   6.360   7.987 -0.8724  1.0020 -1.7906
 4550SOL     OW15069   4.731   4.147   6.308  0.2329 -0.2232  0.1616
 4550SOL    HW115070   4.645   4.178   6.337 -0.7904 -0.6033 -2.2396
 4550SOL    HW215071   4.777   4.226   6.280  0.6516 -0.0335  1.3370
 4551SOL     OW15072   6.781   6.891   3.828 -0.0577  0.4369  0.7247
 4551SOL    HW115073   6.781   6.804   3.868  1.1362  0.5536  1.0269
 4551SOL    HW215074   6.802   6.876   3.736  1.0792  0.4640  0.9685
 4552SOL     OW15075   3.599   2.027   5.345 -0.7122  0.0109  0.4059
 4552SOL    HW115076   3.674   1.979   5.379 -0.6634  0.5785  1.1140
 4552SOL    HW215077   3.626   2.055   5.258  0.0172  0.4818  0.7782
 4553SOL     OW15078   7.019   2.053   4.413  0.6714  0.7617 -0.6048
 4553SOL    HW115079   7.108   2.065   4.380  1.1255  0.6477  0.5410
 4553SOL    HW215080   7.000   1.961   4.398  0.9633  0.6569 -0.3401
 4554SOL     OW15081   3.656   2.340   0.641  0.2181  0.2274 -0.2966
 4554SOL    HW115082   3.647   2.420   0.693 -0.0005 -0.0570  0.1093
 4554SOL    HW215083   3.585   2.345   0.577 -1.1474 -0.6411  1.0764
 4555SOL     OW15084   6.886   2.968   7.568  0.7250 -0.7013 -0.5824
 4555SOL    HW115085   6.971   2.978   7.611  0.0196  0.3423  0.6449
 4555SOL    HW215086   6.881   2.875   7.547  1.2452 -1.2106  1.3475
 4556SOL     OW15087   3.543   6.603   5.933 -0.3537  0.0689 -0.5280
 4556SOL    HW115088   3.630   6.614   5.894 -0.0645 -1.9712 -0.5857
 4556SOL    HW215089   3.544   6.515   5.970 -1.6185  0.8573  1.5730
 4557SOL     OW15090   2.682   7.376   1.842  0.4602 -0.3053  0.1763
 4557SOL    HW115091   2.629   7.405   1.768 -0.5058 -0.3704  0.8205
 4557SOL    HW215092   2.679   7.281   1.838 -0.6956 -0.3357  1.0197
 4558SOL     OW15093   2.024   0.859   7.172 -0.0698 -0.3828 -0.1109
 4558SOL    HW115094   2.059   0.770   7.176  1.4960  0.1661 -0.7680
 4558SOL    HW215095   2.079   0.910   7.231 -0.6785  0.2483 -0.0677
 4559SOL     OW15096   1.217   5.602   5.867  0.7505  0.3741  0.2973
 4559SOL    HW115097   1.122   5.615   5.867  0.5764 -0.6049 -1.5464
 4559SOL    HW215098   1.229   5.513   5.900  0.9296  0.0741 -0.5537
 4560SOL     OW15099   7.538   7.951   1.765 -0.4514  0.2532  0.5530
 4560SOL    HW115100   7.583   7.867   1.777 -0.4333  0.2345  0.3540
 4560SOL    HW215101   7.564   8.004   1.841  0.8723  0.6750 -0.1819
 4561SOL     OW15102   0.671   1.872   5.486  0.1362 -0.0784  0.4496
 4561SOL    HW115103   0.640   1.884   5.576  0.2718 -0.2121  0.5146
 4561SOL    HW215104   0.765   1.889   5.490  0.1042  0.1414  0.2885
 4562SOL     OW15105   5.063   1.062   5.104 -0.1807 -0.8214  0.3621
 4562SOL    HW115106   4.978   1.100   5.085  0.4408 -0.0060 -0.9237
 4562SOL    HW215107   5.051   1.015   5.187 -2.0382 -1.3029 -0.1455
 4563SOL     OW15108   7.495   5.932   0.576 -0.2901 -0.2162 -0.5072
 4563SOL    HW115109   7.407   5.894   0.577 -0.0374 -0.7804  0.6248
 4563SOL    HW215110   7.540   5.892   0.650  0.4258  1.2401 -0.1162
 4564SOL     OW15111   1.765   0.904   2.446  0.1088 -1.1559  0.1405
 4564SOL    HW115112   1.765   0.869   2.357  1.9317 -0.6524 -0.1006
 4564SOL    HW215113   1.840   0.964   2.448  0.4042 -1.5217  2.1477
 4565SOL     OW15114   1.982   0.576   0.900 -0.2330  0.0928  0.0473
 4565SOL    HW115115   1.975   0.542   0.811  0.3631 -0.3070  0.1457
 4565SOL    HW215116   1.946   0.664   0.895 -0.9508 -0.2197 -0.4135
 4566SOL     OW15117   3.188   5.895   3.729 -0.4822  0.1873  0.7591
 4566SOL    HW115118   3.232   5.979   3.732  0.6866 -0.4201  2.1377
 4566SOL    HW215119   3.106   5.911   3.682 -0.1697  2.0181  0.8012
 4567SOL     OW15120   2.406   5.122   1.469 -0.0289 -0.3371 -0.7357
 4567SOL    HW115121   2.389   5.200   1.417 -1.9558 -0.0218  0.2818
 4567SOL    HW215122   2.428   5.155   1.556 -0.7004 -0.9063 -0.3390
 4568SOL     OW15123   2.460   3.228   5.401  0.2131  0.1193  0.2158
 4568SOL    HW115124   2.427   3.309   5.438 -0.4948  0.2543 -0.6706
 4568SOL    HW215125   2.486   3.252   5.311 -1.3115 -0.9084 -0.5420
 4569SOL     OW15126   0.851   3.309   5.987  0.3540 -0.1028  0.9474
 4569SOL    HW115127   0.803   3.236   5.946  1.6067  0.4054 -1.6284
 4569SOL    HW215128   0.807   3.322   6.071 -0.9410 -2.7484  0.7973
 4570SOL     OW15129   6.839   3.756   1.309 -0.0400 -0.4257  1.0036
 4570SOL    HW115130   6.762   3.736   1.361  1.3129 -1.0545  2.8842
 4570SOL    HW215131   6.837   3.851   1.298 -1.1369 -0.4563  0.9139
 4571SOL     OW15132   7.529   5.742   6.749 -0.0025 -0.5772  0.5903
 4571SOL    HW115133   7.596   5.751   6.681  0.3205  2.9172  1.1771
 4571SOL    HW215134   7.449   5.718   6.702  0.6198 -0.0075 -0.7998
 4572SOL     OW15135   0.989   3.559   1.367 -0.2821 -0.0027  0.0107
 4572SOL    HW115136   0.959   3.609   1.291  0.5524  0.4559 -0.0227
 4572SOL    HW215137   1.010   3.626   1.433  2.9563 -0.0918 -0.7699
 4573SOL     OW15138   7.311   5.689   4.524 -0.2945 -0.3857 -0.0012
 4573SOL    HW115139   7.325   5.699   4.619 -3.1756 -3.1323  0.8880
 4573SOL    HW215140   7.380   5.630   4.496 -0.8427 -1.5651  0.9997
 4574SOL     OW15141   1.507   4.183   6.698 -0.4771  0.5643  0.3112
 4574SOL    HW115142   1.523   4.150   6.610 -0.0123  0.8872  0.2660
 4574SOL    HW215143   1.594   4.209   6.729 -0.7844  1.4554  0.4492
 4575SOL     OW15144   0.913   0.288   6.798 -0.0906  0.0131 -0.2954
 4575SOL    HW115145   0.996   0.286   6.752  0.5736  3.9673  0.3713
 4575SOL    HW215146   0.864   0.359   6.757 -2.0445 -0.4484  1.0579
 4576SOL     OW15147   7.279   3.853   4.323 -0.3069  0.1540 -1.0811
 4576SOL    HW115148   7.347   3.833   4.386 -4.1628 -1.0134  3.2240
 4576SOL    HW215149   7.267   3.772   4.274 -0.5810 -0.6465  0.2707
 4577SOL     OW15150   4.787   2.654   6.922  0.3187  0.3439 -0.2491
 4577SOL    HW115151   4.850   2.675   6.990 -0.8127  1.0747  0.6010
 4577SOL    HW215152   4.777   2.735   6.872  2.6600 -0.6731 -2.6708
 4578SOL     OW15153   4.440   7.806   5.839 -0.1989 -0.1560 -0.2920
 4578SOL    HW115154   4.377   7.821   5.769 -0.9748 -0.7531  0.2604
 4578SOL    HW215155   4.525   7.824   5.799 -0.5995 -0.8118 -1.4848
 4579SOL     OW15156   1.938   7.744   6.151  0.2918  0.0135  0.4314
 4579SOL    HW115157   1.860   7.720   6.201 -1.0596  0.8779 -1.1526
 4579SOL    HW215158   1.956   7.667   6.096 -2.3883  1.3435 -2.6361
 4580SOL     OW15159   5.209   5.289   6.594  0.7955  0.4193  0.0780
 4580SOL    HW115160   5.174   5.373   6.623  1.6127  1.1940 -1.0695
 4580SOL    HW215161   5.301   5.306   6.576  1.1333 -0.8955  0.4235
 4581SOL     OW15162   5.821   3.715   3.283 -0.3522 -0.3967 -0.6069
 4581SOL    HW115163   5.894   3.773   3.301 -1.8174  1.8404 -1.4747
 4581SOL    HW215164   5.772   3.711   3.366  2.4390 -4.8728  1.2459
 4582SOL     OW15165   6.671   1.349   0.147  0.3047 -0.5355 -0.0245
 4582SOL    HW115166   6.747   1.399   0.176 -0.7396  2.6976 -2.2937
 4582SOL    HW215167   6.617   1.338   0.225  1.1284  0.9028  0.7800
 4583SOL     OW15168   3.587   3.656   4.337 -0.0145 -0.5115  0.5016
 4583SOL    HW115169   3.653   3.591   4.311 -0.5398 -0.8476 -0.0148
 4583SOL    HW215170   3.510   3.634   4.286 -0.8411 -0.6909  1.7923
 4584SOL     OW15171   1.504   2.177   5.228  0.4080 -0.5795 -0.3676
 4584SOL    HW115172   1.598   2.195   5.232  0.3426  0.3267 -1.9349
 4584SOL    HW215173   1.497   2.098   5.176  0.3331 -1.2476  0.6311
 4585SOL     OW15174   1.764   7.452   0.668  0.0401  0.5994  0.4220
 4585SOL    HW115175   1.742   7.391   0.739  0.2627  0.8540  0.7125
 4585SOL    HW215176   1.679   7.484   0.638 -0.1351 -0.5306 -0.3476
 4586SOL     OW15177   4.250   3.726   1.243  0.3173  0.0053  0.6048
 4586SOL    HW115178   4.319   3.715   1.308 -0.2123  0.1600  1.2047
 4586SOL    HW215179   4.264   3.814   1.207  0.2254  0.1697  0.9722
 4587SOL     OW15180   1.586   3.422   3.692  0.2226 -0.1568  0.5159
 4587SOL    HW115181   1.596   3.404   3.785 -2.4398  1.5564  1.2609
 4587SOL    HW215182   1.567   3.337   3.652  1.7693 -0.9624  1.4333
 4588SOL     OW15183   4.349   5.034   2.362  0.3681 -0.1696  0.0992
 4588SOL    HW115184   4.265   4.991   2.378  0.4970  0.8135  4.9708
 4588SOL    HW215185   4.406   4.964   2.332 -1.0201 -1.9767  1.4637
 4589SOL     OW15186   2.101   5.372   3.719  0.4194 -0.0690  0.1776
 4589SOL    HW115187   2.113   5.280   3.696 -1.6907 -0.2318 -0.4627
 4589SOL    HW215188   2.113   5.374   3.814 -0.9754 -1.3027  0.4167
 4590SOL     OW15189   5.788   0.503   6.739 -0.5833  0.0350 -0.0134
 4590SOL    HW115190   5.835   0.575   6.698 -0.1006 -0.6030 -0.6065
 4590SOL    HW215191   5.838   0.425   6.716  0.9124 -0.2244  3.4104
 4591SOL     OW15192   7.052   2.320   5.249 -0.3283  0.4502 -0.2761
 4591SOL    HW115193   7.133   2.272   5.230 -1.3594 -1.1389 -0.8892
 4591SOL    HW215194   6.987   2.252   5.268 -1.4679  1.6918  0.5063
 4592SOL     OW15195   4.943   7.552   7.200  0.1255  0.3189 -0.2511
 4592SOL    HW115196   4.915   7.570   7.290  1.1989 -1.3928  0.4660
 4592SOL    HW215197   4.902   7.469   7.178  1.8906 -0.5794 -0.3676
 4593SOL     OW15198   0.082   1.805   2.269  0.1690  0.0757 -0.2452
 4593SOL    HW115199   0.036   1.747   2.209  0.6982  0.1604 -0.7444
 4593SOL    HW215200   0.099   1.884   2.218  0.3744  0.2556  0.1013
 4594SOL     OW15201   2.661   1.127   0.481 -0.4128  0.3516 -0.2443
 4594SOL    HW115202   2.738   1.133   0.425 -1.2446  1.2251 -1.3632
 4594SOL    HW215203   2.668   1.201   0.540 -0.0677  0.0516  0.0901
 4595SOL     OW15204   7.533   5.075   6.661  0.2887  0.0788 -0.8025
 4595SOL    HW115205   7.537   5.170   6.674 -2.4452  0.0721  0.9032
 4595SOL    HW215206   7.479   5.065   6.582 -0.3177 -0.0378 -0.3793
 4596SOL     OW15207   0.682   8.027   5.124  0.7808 -0.0601 -0.0153
 4596SOL    HW115208   0.650   8.117   5.118  1.0605 -0.0375 -1.9705
 4596SOL    HW215209   0.775   8.036   5.146  0.3024 -0.0034  2.1922
 4597SOL     OW15210   1.127   5.200   1.158  0.3410  0.2363  0.7653
 4597SOL    HW115211   1.146   5.262   1.087  0.2080 -1.5757 -0.9450
 4597SOL    HW215212   1.207   5.149   1.167 -0.3934 -1.0413  0.2941
 4598SOL     OW15213   1.066   5.357   6.535 -0.3104 -0.2070 -0.6504
 4598SOL    HW115214   1.004   5.290   6.506  0.0801 -0.3726 -1.1104
 4598SOL    HW215215   1.150   5.330   6.498  0.2565 -0.5459  0.8196
 4599SOL     OW15216   5.893   7.818   7.210 -0.0979 -0.4338 -0.1803
 4599SOL    HW115217   5.913   7.845   7.300  2.2470 -0.2782 -0.6624
 4599SOL    HW215218   5.799   7.806   7.208 -0.3987  1.0330  1.9084
 4600SOL     OW15219   0.425   1.078   3.351 -0.3415  0.5808  0.0546
 4600SOL    HW115220   0.476   1.074   3.432  0.7668  1.6682 -0.5498
 4600SOL    HW215221   0.345   1.031   3.371  0.3051  0.0290  1.4911
 4601SOL     OW15222   4.788   0.584   3.890  0.4628 -0.0847 -0.0372
 4601SOL    HW115223   4.736   0.629   3.958 -1.1840  0.7977 -1.7915
 4601SOL    HW215224   4.861   0.643   3.873  0.2747  0.2233  0.1943
 4602SOL     OW15225   1.407   2.770   1.009 -0.2692  0.3822  0.0294
 4602SOL    HW115226   1.322   2.792   0.969 -1.9441 -0.6549  2.7313
 4602SOL    HW215227   1.427   2.683   0.973  0.4710  1.2313 -1.7418
 4603SOL     OW15228   1.910   6.555   2.795 -0.3470 -0.0474  0.4023
 4603SOL    HW115229   1.994   6.531   2.756  0.2703  0.7373  1.1967
 4603SOL    HW215230   1.912   6.651   2.798 -1.6589  0.0293 -0.3864
 4604SOL     OW15231   1.962   4.129   3.705 -0.9781 -0.0104  0.0633
 4604SOL    HW115232   2.011   4.065   3.652 -0.7942  0.1412  0.0465
 4604SOL    HW215233   2.014   4.210   3.697 -0.3341 -0.2724  1.3843
 4605SOL     OW15234   1.655   3.163   0.742  0.9981 -0.4217 -0.8462
 4605SOL    HW115235   1.565   3.145   0.769  2.0066 -2.2644  1.7383
 4605SOL    HW215236   1.670   3.253   0.770  0.8903 -1.1590  1.8865
 4606SOL     OW15237   3.857   2.175   5.906  0.7091 -0.4008 -0.1391
 4606SOL    HW115238   3.853   2.192   6.000  0.0977  1.2546 -0.4326
 4606SOL    HW215239   3.904   2.250   5.870  0.6913 -0.8750 -1.1861
 4607SOL     OW15240   2.243   5.715   2.403  0.2852 -0.1563 -0.2456
 4607SOL    HW115241   2.286   5.630   2.413  0.0617 -0.0523  2.2764
 4607SOL    HW215242   2.150   5.696   2.415  0.3231  0.5399  1.4021
 4608SOL     OW15243   4.774   7.907   3.779 -0.0472 -0.1311  0.3205
 4608SOL    HW115244   4.832   7.952   3.717 -0.5817  0.1749  0.0306
 4608SOL    HW215245   4.822   7.827   3.804  0.4418  0.0582  0.0000
 4609SOL     OW15246   2.497   0.485   5.415 -0.2981 -0.1323  0.0499
 4609SOL    HW115247   2.436   0.525   5.477 -0.0625  0.2263  0.0486
 4609SOL    HW215248   2.504   0.394   5.445  0.1215  0.1365  0.7925
 4610SOL     OW15249   5.341   1.958   1.842 -0.3176  0.3683  0.0443
 4610SOL    HW115250   5.332   1.910   1.759 -0.6455  1.4973 -0.5869
 4610SOL    HW215251   5.343   1.889   1.909  1.5328 -0.6751 -0.9896
 4611SOL     OW15252   1.627   6.642   4.497 -0.2849 -0.0870  0.0676
 4611SOL    HW115253   1.646   6.657   4.589 -1.2393  1.5813  0.0402
 4611SOL    HW215254   1.637   6.728   4.456  0.6323 -0.8986 -1.4907
 4612SOL     OW15255   6.426   5.483   0.145  0.1745 -0.1175  0.4188
 4612SOL    HW115256   6.480   5.537   0.087 -2.3233  1.6495 -0.4351
 4612SOL    HW215257   6.385   5.545   0.204 -1.4696 -1.2729  0.5460
 4613SOL     OW15258   7.346   6.149   0.824 -1.0594 -0.5179 -0.6035
 4613SOL    HW115259   7.332   6.064   0.784  0.0790 -0.2774 -1.5771
 4613SOL    HW215260   7.441   6.161   0.822 -1.1717  0.5754 -0.0740
 4614SOL     OW15261   6.182   2.318   3.038 -0.4568  0.1729 -0.1305
 4614SOL    HW115262   6.121   2.273   2.979  0.7743 -0.5678 -0.8808
 4614SOL    HW215263   6.212   2.394   2.989 -1.6102  1.1928  0.6780
 4615SOL     OW15264   7.228   7.336   2.605 -0.1364  0.1294  0.1247
 4615SOL    HW115265   7.289   7.408   2.588  0.1988  0.2938  1.8707
 4615SOL    HW215266   7.142   7.371   2.585  0.1890  0.3336 -1.0180
 4616SOL     OW15267   0.406   5.199   3.481 -0.6068  0.0136  0.3968
 4616SOL    HW115268   0.494   5.234   3.495  0.3260 -2.0776  0.1724
 4616SOL    HW215269   0.381   5.163   3.567 -2.6738  3.3690  1.3829
 4617SOL     OW15270   1.244   2.085   5.707  0.4735 -0.2785  0.3831
 4617SOL    HW115271   1.160   2.044   5.728  0.8402 -0.3150  1.8229
 4617SOL    HW215272   1.223   2.179   5.702  0.1686 -0.3703 -0.2563
 4618SOL     OW15273   5.714   7.292   5.754 -0.3040 -0.2693 -0.0514
 4618SOL    HW115274   5.721   7.215   5.811 -1.2405  0.5610  1.2344
 4618SOL    HW215275   5.660   7.353   5.803 -0.6190  0.7372 -1.5880
 4619SOL     OW15276   5.250   6.750   6.426  0.1098  0.1386  0.3506
 4619SOL    HW115277   5.165   6.706   6.431 -0.2240  0.5385 -1.1314
 4619SOL    HW215278   5.231   6.842   6.444  0.7022 -0.1691  2.7842
 4620SOL     OW15279   0.452   7.670   3.186 -0.5749 -0.2883 -0.0735
 4620SOL    HW115280   0.545   7.649   3.181  0.3773  3.2905  0.0907
 4620SOL    HW215281   0.434   7.718   3.106 -1.8237  0.5590  0.6789
 4621SOL     OW15282   6.158   7.331   4.328 -0.3858 -0.3623 -0.0165
 4621SOL    HW115283   6.207   7.318   4.247 -0.5190  0.0221 -0.1596
 4621SOL    HW215284   6.095   7.400   4.307  0.0885  0.2846  0.6408
 4622SOL     OW15285   1.920   0.024   5.328  0.0856  0.1458 -0.4702
 4622SOL    HW115286   2.003   0.001   5.369 -0.4477  1.8674  1.7798
 4622SOL    HW215287   1.944   0.057   5.241  1.6190 -0.3884 -0.2727
 4623SOL     OW15288   3.704   2.321   5.598 -0.0184  0.3044  0.1372
 4623SOL    HW115289   3.640   2.259   5.563 -0.7552  1.3574 -0.4188
 4623SOL    HW215290   3.681   2.328   5.691 -1.5558  1.6109 -0.2934
 4624SOL     OW15291   3.414   4.892   4.275 -0.0186  0.2806  0.2598
 4624SOL    HW115292   3.485   4.843   4.233  0.6955  2.0851 -0.7455
 4624SOL    HW215293   3.429   4.879   4.369  2.8977  2.1702  0.1881
 4625SOL     OW15294   1.687   5.778   0.924 -0.2325 -0.0665  0.2890
 4625SOL    HW115295   1.603   5.734   0.938 -0.3879  1.2205  5.9048
 4625SOL    HW215296   1.664   5.870   0.909  0.2216 -0.0863 -0.6291
 4626SOL     OW15297   0.621   2.994   4.984  0.1715 -0.0720 -0.2747
 4626SOL    HW115298   0.585   3.068   5.031 -0.2209 -1.5276  1.8921
 4626SOL    HW215299   0.545   2.944   4.954  0.2843 -1.6162  1.7731
 4627SOL     OW15300   6.792   6.631   3.873  0.5492  0.1830  0.0816
 4627SOL    HW115301   6.802   6.613   3.779 -1.3530  0.5321 -0.2372
 4627SOL    HW215302   6.768   6.546   3.911  0.5018  0.2115  0.1154
 4628SOL     OW15303   7.074   5.793   1.022 -0.3916  0.2202 -0.4923
 4628SOL    HW115304   6.993   5.797   1.072 -1.4443 -0.8245 -2.0333
 4628SOL    HW215305   7.061   5.721   0.961  2.8214 -1.9006  1.0909
 4629SOL     OW15306   0.882   4.729   3.470  0.0834 -0.1030 -0.1054
 4629SOL    HW115307   0.972   4.760   3.467  0.0328 -0.0476 -1.5111
 4629SOL    HW215308   0.829   4.809   3.477  0.1083 -0.0735 -0.2448
 4630SOL     OW15309   2.242   3.551   3.154  0.3468  0.1590  0.0741
 4630SOL    HW115310   2.236   3.506   3.238  0.2551 -0.2901 -0.1719
 4630SOL    HW215311   2.169   3.516   3.102 -0.3121  1.2830  0.2122
 4631SOL     OW15312   5.610   5.713   1.958 -0.1848 -0.3119 -0.2810
 4631SOL    HW115313   5.526   5.725   2.004 -1.0261 -3.3967 -0.8075
 4631SOL    HW215314   5.586   5.708   1.866  0.8581  0.6142 -0.6230
 4632SOL     OW15315   4.816   3.985   0.240 -0.0678  0.0213  0.5130
 4632SOL    HW115316   4.881   3.920   0.267  0.8628  1.0940  0.8861
 4632SOL    HW215317   4.732   3.939   0.250  0.5020 -0.8356  1.6342
 4633SOL     OW15318   6.354   0.254   6.688 -0.3419 -0.3793  0.3530
 4633SOL    HW115319   6.266   0.247   6.727 -0.3777 -2.0526  0.0765
 4633SOL    HW215320   6.337   0.284   6.599 -0.6910 -0.9882  0.2007
 4634SOL     OW15321   3.674   6.560   3.100  0.2229 -0.1536  0.1645
 4634SOL    HW115322   3.587   6.585   3.070  0.4492 -2.3813 -2.7693
 4634SOL    HW215323   3.717   6.644   3.119 -0.1959  1.8460 -5.5550
 4635SOL     OW15324   0.304   3.719   4.573  0.2285 -0.3863  0.2613
 4635SOL    HW115325   0.233   3.677   4.623 -2.0949  0.9683 -1.6593
 4635SOL    HW215326   0.372   3.652   4.569 -0.1457 -1.1557  3.6659
 4636SOL     OW15327   6.132   6.746   6.085 -0.0171  0.3684  0.4249
 4636SOL    HW115328   6.102   6.703   6.005 -0.2322  0.9294  0.1979
 4636SOL    HW215329   6.068   6.814   6.101 -0.0189  0.2107  1.1278
 4637SOL     OW15330   3.148   4.453   4.615  0.4076  0.1158 -0.8824
 4637SOL    HW115331   3.056   4.463   4.639  0.0573 -1.1352 -1.6357
 4637SOL    HW215332   3.149   4.455   4.520  1.3884  1.7578 -0.8722
 4638SOL     OW15333   4.327   2.048   1.256 -0.6441  0.3570 -0.0547
 4638SOL    HW115334   4.256   2.055   1.192 -0.9596  0.0376  0.2611
 4638SOL    HW215335   4.406   2.039   1.202 -0.7266  1.6156 -0.4237
 4639SOL     OW15336   4.969   7.040   3.422  0.2570  0.0160  0.0557
 4639SOL    HW115337   4.987   7.040   3.328  2.9072  0.7385  0.4644
 4639SOL    HW215338   4.884   7.083   3.430  0.3442  0.6756 -1.9505
 4640SOL     OW15339   0.220   2.225   2.651  0.7330 -0.8861  0.1082
 4640SOL    HW115340   0.140   2.172   2.649  0.1700 -0.0352 -0.6428
 4640SOL    HW215341   0.290   2.163   2.626  0.0272 -1.2089 -1.1708
 4641SOL     OW15342   4.324   0.332   6.084  0.5365 -1.0505 -0.2951
 4641SOL    HW115343   4.389   0.346   6.153 -1.8076  0.3998  1.8169
 4641SOL    HW215344   4.244   0.308   6.131 -1.2264  0.0925 -2.4767
 4642SOL     OW15345   7.575   3.650   7.267 -0.0523  0.2845 -0.9117
 4642SOL    HW115346   7.575   3.745   7.267 -1.0599  0.3018 -0.4283
 4642SOL    HW215347   7.573   3.626   7.175  0.5187  0.7220 -1.0421
 4643SOL     OW15348   3.110   0.716   2.949 -0.6020 -0.2487  0.0058
 4643SOL    HW115349   3.139   0.653   3.015 -1.0248 -0.7370 -0.2751
 4643SOL    HW215350   3.049   0.667   2.893 -1.4083  0.5716  0.1481
 4644SOL     OW15351   0.650   4.502   3.555  0.2658 -0.0266  0.5619
 4644SOL    HW115352   0.588   4.442   3.596 -1.2407 -0.4209 -2.0232
 4644SOL    HW215353   0.614   4.589   3.571 -0.0503 -0.1455  0.5052
 4645SOL     OW15354   2.116   0.678   6.082  0.5534 -0.3708  0.0982
 4645SOL    HW115355   2.026   0.662   6.112  1.3385 -1.8343  1.8822
 4645SOL    HW215356   2.106   0.705   5.991 -1.7065 -0.1429  0.3403
 4646SOL     OW15357   6.603   7.003   1.262 -0.5239  0.1394 -0.1442
 4646SOL    HW115358   6.547   7.028   1.336  1.1907  0.8363  0.9690
 4646SOL    HW215359   6.628   6.913   1.282  0.8653  0.6992  0.7711
 4647SOL     OW15360   2.161   0.947   4.577  0.6231  0.5447 -0.0614
 4647SOL    HW115361   2.161   1.027   4.523  0.7519 -1.0546 -2.6043
 4647SOL    HW215362   2.078   0.905   4.558  1.2223 -0.7089 -0.0212
 4648SOL     OW15363   1.630   1.150   6.656  0.3691  0.4727  0.8554
 4648SOL    HW115364   1.687   1.135   6.731  3.4861 -0.4115 -1.4608
 4648SOL    HW215365   1.674   1.217   6.604 -0.9582  0.1449 -0.8095
 4649SOL     OW15366   7.048   2.880   1.922  0.5902  0.3195 -1.0440
 4649SOL    HW115367   6.981   2.923   1.975  1.4598  0.9084 -0.4114
 4649SOL    HW215368   7.021   2.896   1.832 -2.4422 -2.9766 -0.9669
 4650SOL     OW15369   7.793   6.722   0.764  0.2372 -0.1398 -0.5010
 4650SOL    HW115370   7.845   6.780   0.708  0.1922 -0.9095 -1.3442
 4650SOL    HW215371   7.811   6.634   0.732 -2.2942 -0.3889 -1.4389
 4651SOL     OW15372   1.175   2.368   7.913  0.1055 -0.2173  0.4918
 4651SOL    HW115373   1.104   2.347   7.851  0.1533  1.5562 -0.2000
 4651SOL    HW215374   1.240   2.299   7.899  0.0907  0.1054 -1.4321
 4652SOL     OW15375   7.685   4.216   2.961 -0.0889 -0.2359  0.1669
 4652SOL    HW115376   7.664   4.304   2.928 -0.4835 -0.1699  0.5878
 4652SOL    HW215377   7.613   4.161   2.930 -0.6128 -0.1168  1.1523
 4653SOL     OW15378   2.503   2.668   4.306 -0.0893  0.0112  0.4172
 4653SOL    HW115379   2.458   2.587   4.283 -1.5867  1.4724 -2.2726
 4653SOL    HW215380   2.585   2.639   4.345 -0.0510 -2.8230 -1.4564
 4654SOL     OW15381   1.214   0.306   4.081  0.5805 -0.1500 -0.6240
 4654SOL    HW115382   1.308   0.305   4.099  0.2763  0.1639  1.1001
 4654SOL    HW215383   1.193   0.214   4.061  0.5528 -1.1513  3.2083
 4655SOL     OW15384   7.290   2.561   2.304 -0.1598 -0.4644 -0.1739
 4655SOL    HW115385   7.372   2.518   2.280 -0.1567  0.3464 -1.7764
 4655SOL    HW215386   7.253   2.590   2.220 -2.3027 -1.1747  0.4480
 4656SOL     OW15387   2.154   7.396   3.190 -0.3908 -0.3851  0.8110
 4656SOL    HW115388   2.164   7.437   3.276  1.8828 -1.0712  0.9455
 4656SOL    HW215389   2.171   7.467   3.128 -0.1288 -0.3143  0.9625
 4657SOL     OW15390   1.350   7.973   4.910 -0.2916  0.7835  0.5387
 4657SOL    HW115391   1.283   7.912   4.943 -2.3868  1.8294 -1.4823
 4657SOL    HW215392   1.411   7.982   4.983 -0.6806 -2.5230  1.4657
 4658SOL     OW15393   4.114   3.160   6.844 -0.4326  0.0503  0.2452
 4658SOL    HW115394   4.080   3.082   6.888 -0.8625  0.1508  0.0904
 4658SOL    HW215395   4.185   3.126   6.788 -0.6619 -0.2383  0.1273
 4659SOL     OW15396   5.437   4.974   7.785  0.1302 -0.1749  0.2467
 4659SOL    HW115397   5.429   5.069   7.773  0.7790  0.0791  1.6115
 4659SOL    HW215398   5.355   4.947   7.826  0.6208  0.1031  1.4484
 4660SOL     OW15399   3.504   2.795   1.662 -0.2693  0.2983 -0.6777
 4660SOL    HW115400   3.599   2.788   1.654 -0.2308  0.3767 -0.2747
 4660SOL    HW215401   3.479   2.718   1.713 -0.3587  0.5951 -0.2739
 4661SOL     OW15402   0.790   6.822   3.378 -0.6263 -0.2750  0.5533
 4661SOL    HW115403   0.764   6.731   3.375  0.5644 -0.6067 -0.9685
 4661SOL    HW215404   0.827   6.833   3.466 -0.2775 -1.4086  0.5645
 4662SOL     OW15405   6.429   0.668   2.589 -0.0106  0.3536  0.7583
 4662SOL    HW115406   6.351   0.654   2.642 -1.4169 -3.1509 -1.8938
 4662SOL    HW215407   6.498   0.620   2.635 -0.6656 -0.7401  0.6328
 4663SOL     OW15408   5.635   3.474   0.985  0.2325 -0.2200 -0.0894
 4663SOL    HW115409   5.595   3.560   0.999 -0.0839 -0.4671  0.5358
 4663SOL    HW215410   5.625   3.428   1.068 -1.5954 -1.6742 -1.0371
 4664SOL     OW15411   2.520   1.709   1.253 -0.4111  0.0671  0.0899
 4664SOL    HW115412   2.508   1.718   1.348 -0.1081 -1.1580  0.2612
 4664SOL    HW215413   2.434   1.726   1.216 -1.0684 -1.6228  0.7688
 4665SOL     OW15414   0.309   0.214   4.512 -0.1171 -0.4084 -0.1645
 4665SOL    HW115415   0.235   0.261   4.552  0.7675  1.3426 -0.4584
 4665SOL    HW215416   0.351   0.168   4.584 -1.1703 -0.9870  0.0959
 4666SOL     OW15417   2.320   3.198   2.173  0.2561  1.0685  0.0225
 4666SOL    HW115418   2.271   3.223   2.251  0.6088  2.8823 -0.2817
 4666SOL    HW215419   2.341   3.106   2.185 -2.1262  0.5680  0.7447
 4667SOL     OW15420   7.280   5.596   1.142  0.2971 -0.0771  0.7688
 4667SOL    HW115421   7.245   5.578   1.055 -0.2316  0.1618  0.9262
 4667SOL    HW215422   7.204   5.628   1.192  0.8564  1.0372  0.9426
 4668SOL     OW15423   4.306   7.961   7.654  0.2687 -0.3937 -0.1429
 4668SOL    HW115424   4.362   7.898   7.609  0.2423 -0.9663  0.5985
 4668SOL    HW215425   4.363   8.036   7.671  0.6052 -0.6625 -0.0740
 4669SOL     OW15426   0.138   5.392   6.238 -0.0205  0.7479  0.1318
 4669SOL    HW115427   0.171   5.457   6.300  0.8166 -0.4428  0.9913
 4669SOL    HW215428   0.100   5.324   6.293 -1.1283  0.6161 -0.7593
 4670SOL     OW15429   0.899   5.461   2.631 -0.1210 -0.6335 -0.5720
 4670SOL    HW115430   0.868   5.549   2.654 -1.2745 -1.2645  0.4191
 4670SOL    HW215431   0.837   5.429   2.566  0.5888 -0.5374 -1.3097
 4671SOL     OW15432   3.020   8.049   4.726 -0.4201 -0.0078  0.7428
 4671SOL    HW115433   2.938   8.022   4.767 -0.8894 -1.7469 -1.1691
 4671SOL    HW215434   3.002   8.044   4.632  1.7724 -0.0817  0.2832
 4672SOL     OW15435   5.877   4.006   2.588 -0.1729  0.1698  0.6306
 4672SOL    HW115436   5.889   4.072   2.520  0.0139  1.0802  1.5206
 4672SOL    HW215437   5.836   3.932   2.543 -2.7026  1.7793  0.0472
 4673SOL     OW15438   4.055   3.292   1.789  0.2956  0.1265  0.0372
 4673SOL    HW115439   4.029   3.312   1.698  1.0350  3.2427  0.3805
 4673SOL    HW215440   3.982   3.324   1.842  1.0241  0.8774  0.6166
 4674SOL     OW15441   6.883   4.981   1.891 -0.3751 -0.5252 -0.0298
 4674SOL    HW115442   6.806   4.968   1.835  0.3776  0.8327 -1.4761
 4674SOL    HW215443   6.893   5.077   1.894  0.5631 -0.6502  1.1156
 4675SOL     OW15444   6.538   7.438   0.949 -0.2396  0.3085  0.2917
 4675SOL    HW115445   6.576   7.507   0.895  1.4375  1.4345  2.7364
 4675SOL    HW215446   6.605   7.370   0.953 -0.6251 -0.0743  0.4157
 4676SOL     OW15447   5.380   0.193   5.159  0.1390  0.1004 -0.8794
 4676SOL    HW115448   5.403   0.284   5.139  0.9985  0.0808 -0.0796
 4676SOL    HW215449   5.300   0.199   5.211  0.8792  0.5173  0.2732
 4677SOL     OW15450   2.131   6.826   6.272  0.7332  0.1198 -0.3799
 4677SOL    HW115451   2.129   6.733   6.295 -1.7048 -0.0593 -1.0003
 4677SOL    HW215452   2.097   6.830   6.183  0.8201  1.6038 -0.3777
 4678SOL     OW15453   3.081   2.610   1.593 -0.2820  0.0411 -0.1568
 4678SOL    HW115454   2.987   2.620   1.610 -0.5081  1.2345 -1.8502
 4678SOL    HW215455   3.085   2.555   1.515  0.5012 -1.0130  0.5975
 4679SOL     OW15456   0.129   0.123   5.281 -0.0738  1.0624 -0.2274
 4679SOL    HW115457   0.173   0.191   5.333 -0.6830  1.6102 -0.4142
 4679SOL    HW215458   0.176   0.123   5.197  0.7217  0.3813  0.1995
 4680SOL     OW15459   2.667   0.668   0.061 -0.0741  0.2187 -0.1020
 4680SOL    HW115460   2.675   0.650  -0.033 -1.7959 -0.7738 -0.1013
 4680SOL    HW215461   2.649   0.761   0.066  1.5978  0.6055 -0.6271
 4681SOL     OW15462   7.889   3.897   3.506 -1.1579 -0.0156  0.7927
 4681SOL    HW115463   7.868   3.980   3.463 -1.8897 -0.8576 -0.5416
 4681SOL    HW215464   7.903   3.921   3.597 -0.8677  1.6452  0.3544
 4682SOL     OW15465   7.112   6.114   3.777  0.6433 -0.4550  0.5947
 4682SOL    HW115466   7.021   6.128   3.751  0.6466 -2.1439 -0.4669
 4682SOL    HW215467   7.106   6.070   3.862  0.4194 -1.4485  0.0775
 4683SOL     OW15468   2.390   1.122   5.869  0.4414 -0.1076  0.0114
 4683SOL    HW115469   2.483   1.105   5.876  0.0917 -1.5579  1.9381
 4683SOL    HW215470   2.382   1.216   5.888  1.4527 -0.0419  0.1727
 4684SOL     OW15471   3.343   6.514   6.334  0.0807 -0.6024 -0.2079
 4684SOL    HW115472   3.355   6.463   6.414 -1.1992 -1.6763 -0.6489
 4684SOL    HW215473   3.343   6.605   6.363  1.4720 -0.8834  0.7393
 4685SOL     OW15474   7.615   6.371   7.489 -0.0940 -0.4153 -0.4340
 4685SOL    HW115475   7.558   6.419   7.430 -0.1021  1.7142  1.2012
 4685SOL    HW215476   7.690   6.347   7.436  0.7891  3.0768 -0.9923
 4686SOL     OW15477   1.388   3.094   0.795 -0.0145 -0.1306 -0.9002
 4686SOL    HW115478   1.294   3.085   0.778  0.1058 -2.7386 -0.6588
 4686SOL    HW215479   1.394   3.108   0.890 -0.1781  0.1551 -0.9333
 4687SOL     OW15480   7.638   0.847   2.060  0.0257  0.2852  0.2845
 4687SOL    HW115481   7.704   0.778   2.051 -1.2145 -0.9827  0.5525
 4687SOL    HW215482   7.599   0.855   1.973 -0.3345  0.1094  0.4261
 4688SOL     OW15483   6.211   5.015   4.372 -0.2724 -0.2703  0.1654
 4688SOL    HW115484   6.132   4.978   4.334  0.4195 -2.0843  0.3848
 4688SOL    HW215485   6.283   4.975   4.322  0.5653 -0.7355  1.6777
 4689SOL     OW15486   5.527   0.476   6.631 -0.4504  0.1376  0.1153
 4689SOL    HW115487   5.596   0.457   6.695  0.4710  0.5267 -0.7236
 4689SOL    HW215488   5.489   0.559   6.660 -0.7768 -0.2298  0.7528
 4690SOL     OW15489   0.077   3.063   5.844 -0.5153  0.2803 -0.2327
 4690SOL    HW115490   0.157   3.035   5.801 -0.1469  0.5540  0.2727
 4690SOL    HW215491   0.026   2.983   5.853 -1.8126  0.5365 -3.5754
 4691SOL     OW15492   7.456   6.232   7.160 -0.2977  0.1805 -0.5439
 4691SOL    HW115493   7.382   6.226   7.100 -0.5029  1.4742 -0.4507
 4691SOL    HW215494   7.496   6.317   7.141  0.2122  0.1885  0.4810
 4692SOL     OW15495   3.095   0.135   6.171  0.7339  0.3305 -1.1381
 4692SOL    HW115496   3.125   0.221   6.201  0.4100  0.4604 -1.1810
 4692SOL    HW215497   3.163   0.075   6.200  0.9485  0.5986 -1.0809
 4693SOL     OW15498   2.871   3.926   2.992 -0.5221  0.2436 -0.0499
 4693SOL    HW115499   2.880   3.870   3.069  0.4724 -0.8384 -0.9025
 4693SOL    HW215500   2.836   4.008   3.025  1.2893  0.3483  1.7878
 4694SOL     OW15501   6.877   4.012   1.155 -0.0965 -0.1522  0.3830
 4694SOL    HW115502   6.911   4.084   1.209  1.5535  0.1820 -0.9891
 4694SOL    HW215503   6.932   4.014   1.076 -2.5132 -0.4833 -1.4204
 4695SOL     OW15504   0.288   5.910   3.625 -0.0127  0.3780  0.3140
 4695SOL    HW115505   0.355   5.974   3.648  2.0567 -1.6905  0.3969
 4695SOL    HW215506   0.232   5.905   3.703 -0.7988  2.6777 -0.0312
 4696SOL     OW15507   1.644   2.789   4.422  0.4168 -0.1204 -0.1383
 4696SOL    HW115508   1.654   2.730   4.496 -0.0196  0.2506  0.2190
 4696SOL    HW215509   1.551   2.783   4.398  0.5502 -0.2274 -0.6470
 4697SOL     OW15510   0.307   5.201   0.718 -0.2191 -0.2960 -0.4539
 4697SOL    HW115511   0.384   5.177   0.769 -0.6722 -4.1832 -1.2877
 4697SOL    HW215512   0.241   5.224   0.783  0.8125  0.3260  0.3999
 4698SOL     OW15513   0.722   2.479   4.322  1.0310  0.1444 -0.9452
 4698SOL    HW115514   0.646   2.457   4.376  2.0525  2.1093  1.4816
 4698SOL    HW215515   0.766   2.395   4.308 -0.5769 -0.7633 -0.8292
 4699SOL     OW15516   5.032   7.130   2.675 -0.4379  0.5842  0.1129
 4699SOL    HW115517   5.028   7.192   2.748  0.4835  0.7464  0.0442
 4699SOL    HW215518   4.994   7.178   2.601  3.5461  2.6085 -0.9323
 4700SOL     OW15519   3.902   0.095   0.476 -0.7513  0.0516  0.7677
 4700SOL    HW115520   3.922   0.118   0.386 -0.5857 -0.8480  0.5694
 4700SOL    HW215521   3.983   0.110   0.524 -0.5159 -0.5273  0.5570
 4701SOL     OW15522   6.785   1.404   6.670  0.3089 -0.2746  0.0325
 4701SOL    HW115523   6.754   1.360   6.749 -1.7455 -0.2016 -0.6783
 4701SOL    HW215524   6.759   1.347   6.598  2.0220 -0.2645 -0.6335
 4702SOL     OW15525   5.427   1.625   8.019  0.2095 -0.3783  0.1154
 4702SOL    HW115526   5.432   1.720   8.010  0.9668 -0.5387 -1.5738
 4702SOL    HW215527   5.349   1.601   7.969 -0.2859 -0.6060  0.9919
 4703SOL     OW15528   8.039   3.133   3.424  0.2727  0.6274  0.0623
 4703SOL    HW115529   8.130   3.159   3.406 -0.0040  1.0924 -0.7385
 4703SOL    HW215530   8.045   3.040   3.447  0.8837  0.4869 -0.6242
 4704SOL     OW15531   1.749   2.985   7.343  0.7059  0.5105 -0.5228
 4704SOL    HW115532   1.823   3.045   7.333  2.0327 -0.7503  1.1125
 4704SOL    HW215533   1.709   3.010   7.426  0.7223 -0.2943 -0.2686
 4705SOL     OW15534   5.178   3.482   0.240  0.0967  0.7725 -0.0528
 4705SOL    HW115535   5.176   3.386   0.239 -0.0614  0.7373  1.4816
 4705SOL    HW215536   5.268   3.503   0.265  0.5321  1.0761 -1.7614
 4706SOL     OW15537   1.475   2.895   5.272 -0.1644 -0.1373  0.4317
 4706SOL    HW115538   1.529   2.834   5.322  0.7071  2.0539  2.3534
 4706SOL    HW215539   1.539   2.945   5.220 -0.7547 -0.0816 -0.2575
 4707SOL     OW15540   2.633   1.031   5.979  0.1984  0.3255  0.5359
 4707SOL    HW115541   2.688   1.024   6.057  0.0291 -0.3828  0.5938
 4707SOL    HW215542   2.693   1.062   5.911  0.0015  2.6829  1.3206
 4708SOL     OW15543   6.197   7.924   3.869  0.1824 -0.0895 -0.3741
 4708SOL    HW115544   6.213   7.837   3.834 -0.5217 -0.2316 -0.3619
 4708SOL    HW215545   6.208   7.914   3.964 -0.9806 -0.4262 -0.2644
 4709SOL     OW15546   3.730   1.901   0.604 -0.0648  0.3435 -0.4143
 4709SOL    HW115547   3.753   1.983   0.646 -0.6617 -0.1407  0.9046
 4709SOL    HW215548   3.642   1.915   0.569  0.2489  0.5930 -1.1319
 4710SOL     OW15549   2.396   0.021   4.390 -0.4994  0.4757 -0.3402
 4710SOL    HW115550   2.334  -0.015   4.453  0.6118  1.6771  1.5269
 4710SOL    HW215551   2.416  -0.053   4.332 -1.7932 -0.5894  0.5121
 4711SOL     OW15552   1.560   4.647   7.888 -0.1872  0.4489 -0.2964
 4711SOL    HW115553   1.469   4.664   7.865 -0.4803 -0.6872 -0.0504
 4711SOL    HW215554   1.590   4.585   7.822  0.2278  0.3577 -0.0259
 4712SOL     OW15555   2.267   6.479   3.373 -0.5820  0.2942  0.2883
 4712SOL    HW115556   2.356   6.512   3.359 -1.2900  2.1940 -0.0861
 4712SOL    HW215557   2.264   6.453   3.465  0.8395 -1.4751 -0.1206
 4713SOL     OW15558   1.854   1.103   3.425 -0.4952  0.2885  0.0447
 4713SOL    HW115559   1.941   1.127   3.393 -0.4112  0.2836  0.2653
 4713SOL    HW215560   1.799   1.179   3.405 -0.1991  0.7456  0.8770
 4714SOL     OW15561   3.414   1.328   1.883 -0.1767 -0.5415  0.0657
 4714SOL    HW115562   3.473   1.302   1.953  1.8618 -0.8033 -1.6386
 4714SOL    HW215563   3.460   1.303   1.802 -2.0240  0.4957 -1.3962
 4715SOL     OW15564   2.215   2.057   0.212  0.1260 -0.2804  0.1602
 4715SOL    HW115565   2.197   2.041   0.120 -1.0000 -0.5888  0.4230
 4715SOL    HW215566   2.257   2.143   0.213 -2.3797  1.0263 -0.4119
 4716SOL     OW15567   0.669   2.595   5.910 -0.2969  0.3791  0.1685
 4716SOL    HW115568   0.574   2.592   5.914 -0.2294 -0.2526  1.6314
 4716SOL    HW215569   0.698   2.578   5.999  1.1723  1.8571  0.0196
 4717SOL     OW15570   1.857   2.223   0.989  0.2616  0.2448 -0.1074
 4717SOL    HW115571   1.945   2.232   0.952 -0.5895  1.1837 -2.0319
 4717SOL    HW215572   1.836   2.130   0.981  1.1744 -0.0566  0.7058
 4718SOL     OW15573   7.119   0.552   7.028 -0.4705  0.6130 -0.1095
 4718SOL    HW115574   7.082   0.540   6.940  3.2586 -2.2329 -1.5788
 4718SOL    HW215575   7.092   0.474   7.076 -0.9682  1.2671  0.6966
 4719SOL     OW15576   5.061   0.501   4.017  0.2015  0.1455 -0.8911
 4719SOL    HW115577   5.040   0.468   4.105 -0.7966  1.3919 -0.6254
 4719SOL    HW215578   5.020   0.440   3.957  0.6948 -0.5899 -0.4926
 4720SOL     OW15579   5.718   4.644   2.658  0.0451  0.0246  0.0129
 4720SOL    HW115580   5.794   4.654   2.601  0.1921 -1.0089  0.0158
 4720SOL    HW215581   5.697   4.734   2.685  0.9737  0.3695 -0.3563
 4721SOL     OW15582   7.095   6.267   7.173 -0.2008  0.1011  0.4389
 4721SOL    HW115583   7.007   6.270   7.134  0.2193 -0.6004 -0.6025
 4721SOL    HW215584   7.148   6.221   7.109  0.7659 -0.1648  1.4019
 4722SOL     OW15585   7.333   0.780   6.906  0.5540  0.0868  0.2402
 4722SOL    HW115586   7.353   0.708   6.848 -1.9645  1.3400 -2.4668
 4722SOL    HW215587   7.417   0.823   6.923  1.3652  0.0793 -3.1644
 4723SOL     OW15588   5.441   7.944   1.198 -0.1557 -0.0885 -0.2949
 4723SOL    HW115589   5.398   7.967   1.116 -1.0145  0.3401  0.2608
 4723SOL    HW215590   5.532   7.930   1.175  0.3637  3.3743 -0.7689
 4724SOL     OW15591   5.942   0.747   3.049 -0.0765  0.5401 -0.2923
 4724SOL    HW115592   5.983   0.727   3.134 -3.1846 -2.4804  0.7305
 4724SOL    HW215593   5.866   0.800   3.071 -0.4740  0.4050 -1.3144
 4725SOL     OW15594   0.813   3.132   4.829 -0.0711 -0.4195  0.4751
 4725SOL    HW115595   0.747   3.077   4.872  0.6107 -0.1943  1.8760
 4725SOL    HW215596   0.835   3.085   4.749 -1.6325 -0.6948  0.1692
 4726SOL     OW15597   6.834   5.611   0.613  0.2064  0.1643  0.0805
 4726SOL    HW115598   6.812   5.527   0.652  2.7061 -1.2353 -1.2958
 4726SOL    HW215599   6.768   5.624   0.545 -0.8745 -0.0511  1.0414
 4727SOL     OW15600   3.179   4.822   0.532  0.6222 -0.1334 -0.1188
 4727SOL    HW115601   3.234   4.751   0.500  1.5762  0.2069  0.7352
 4727SOL    HW215602   3.233   4.900   0.525 -0.1573  0.4002 -0.3489
 4728SOL     OW15603   2.486   7.218   4.859  0.3347 -0.0900 -0.3384
 4728SOL    HW115604   2.477   7.144   4.919  0.0140 -0.1694 -0.4811
 4728SOL    HW215605   2.397   7.252   4.848  0.0254 -1.3627 -2.3812
 4729SOL     OW15606   2.647   7.591   3.199 -0.5508 -0.4685 -0.1107
 4729SOL    HW115607   2.703   7.532   3.250 -1.6118 -0.2235  1.4171
 4729SOL    HW215608   2.583   7.534   3.157 -1.3621 -0.4754  1.0871
 4730SOL     OW15609   7.723   7.645   1.093 -0.8921  0.3675  0.0354
 4730SOL    HW115610   7.760   7.692   1.168  0.1203 -1.1613  0.5341
 4730SOL    HW215611   7.759   7.690   1.016  1.8776 -0.8203  0.4892
 4731SOL     OW15612   7.543   4.568   3.803 -0.0452  0.6609 -0.0946
 4731SOL    HW115613   7.601   4.552   3.728  0.9108  0.8928  0.5863
 4731SOL    HW215614   7.470   4.506   3.790  0.7445 -0.2061 -0.5353
 4732SOL     OW15615   1.014   6.369   1.927 -0.8494  0.3163  0.5806
 4732SOL    HW115616   0.946   6.302   1.919 -0.8924  0.4154  0.0645
 4732SOL    HW215617   0.967   6.450   1.946 -0.9791  0.5834 -0.7614
 4733SOL     OW15618   1.871   4.667   4.653 -0.3424  0.2194  0.1879
 4733SOL    HW115619   1.945   4.619   4.690  0.3465  0.4420 -0.8465
 4733SOL    HW215620   1.800   4.656   4.716  0.3217 -0.7197  0.7827
 4734SOL     OW15621   0.396   4.003   4.680 -0.5449 -0.1555 -0.0251
 4734SOL    HW115622   0.315   3.991   4.629 -0.9807 -0.0652  0.6325
 4734SOL    HW215623   0.372   3.979   4.769  0.1661 -0.1374  0.1763
 4735SOL     OW15624   5.882   5.604   1.661  0.2215  0.5181 -0.0279
 4735SOL    HW115625   5.848   5.516   1.645  0.7765  0.0815  1.1360
 4735SOL    HW215626   5.896   5.641   1.573  0.2764 -0.6642 -0.5251
 4736SOL     OW15627   0.323   5.462   0.548 -0.0563 -0.0129  0.5602
 4736SOL    HW115628   0.295   5.406   0.621  0.7089 -1.7658 -0.4243
 4736SOL    HW215629   0.241   5.498   0.513 -0.4535  0.6679  2.1007
 4737SOL     OW15630   7.343   7.605   5.842  0.5060  0.3068 -0.2122
 4737SOL    HW115631   7.423   7.566   5.809  0.4002  2.5347 -3.5527
 4737SOL    HW215632   7.272   7.555   5.801  0.2337 -0.1014  0.7406
 4738SOL     OW15633   0.789   6.574   0.410  0.3062  0.0557  0.1477
 4738SOL    HW115634   0.879   6.580   0.380  0.1132  1.6127 -0.2015
 4738SOL    HW215635   0.795   6.542   0.500  1.2463  0.7683  0.3471
 4739SOL     OW15636   6.927   4.648   0.364 -0.2438 -0.2777  0.6030
 4739SOL    HW115637   6.918   4.720   0.301 -0.7139 -0.9178 -0.0797
 4739SOL    HW215638   6.838   4.615   0.376 -0.2379  0.2036  2.0570
 4740SOL     OW15639   0.137   4.413   0.969  0.4982 -0.0582 -0.5924
 4740SOL    HW115640   0.085   4.453   0.899  0.5025  2.7503  0.8953
 4740SOL    HW215641   0.073   4.367   1.023 -0.0561  0.9593 -0.3641
 4741SOL     OW15642   4.076   1.635   5.159 -0.4676 -0.4111 -0.0964
 4741SOL    HW115643   4.096   1.560   5.215  2.3329 -0.2892 -0.7725
 4741SOL    HW215644   4.149   1.696   5.174 -1.3164  1.0179 -1.5063
 4742SOL     OW15645   4.481   6.442   5.167 -0.2122 -0.1482 -0.2111
 4742SOL    HW115646   4.536   6.520   5.159  0.9433 -0.7852  0.9786
 4742SOL    HW215647   4.497   6.393   5.086  1.6540 -0.7014  0.4383
 4743SOL     OW15648   3.221   4.095   1.466 -0.2639 -0.6645 -0.0371
 4743SOL    HW115649   3.142   4.121   1.419 -0.9763 -2.5054  0.0578
 4743SOL    HW215650   3.237   4.004   1.438  1.4504 -0.5475  0.4362
 4744SOL     OW15651   7.702   1.320   0.022  0.2070  0.2639 -0.2666
 4744SOL    HW115652   7.782   1.280   0.055 -0.5276  1.3003  3.2597
 4744SOL    HW215653   7.732   1.395  -0.029  1.5856  1.2419  1.8362
 4745SOL     OW15654   7.215   3.804   5.832 -0.9802 -0.6077  0.0403
 4745SOL    HW115655   7.136   3.780   5.880 -0.7526  1.0117  1.3243
 4745SOL    HW215656   7.263   3.861   5.892  0.5483 -0.5223 -1.1953
 4746SOL     OW15657   7.827   4.122   0.365 -0.2119 -0.3792  0.2480
 4746SOL    HW115658   7.819   4.197   0.422 -0.7420 -0.1816 -0.0811
 4746SOL    HW215659   7.805   4.047   0.420  0.3593 -0.3027  0.5857
 4747SOL     OW15660   4.405   3.867   0.846  0.2201 -0.0539 -0.2218
 4747SOL    HW115661   4.431   3.958   0.841  1.2864 -0.2574  1.1722
 4747SOL    HW215662   4.475   3.819   0.803  1.9176 -0.5228  2.7629
 4748SOL     OW15663   5.218   1.804   1.377  0.0594  0.3322 -0.0571
 4748SOL    HW115664   5.127   1.772   1.369  1.2703 -3.7959  0.3918
 4748SOL    HW215665   5.259   1.777   1.295  1.6757 -1.1652  1.1761
 4749SOL     OW15666   6.393   2.762   7.276  0.0840  0.1159  0.0155
 4749SOL    HW115667   6.447   2.789   7.351  2.1997  0.3202 -1.5025
 4749SOL    HW215668   6.338   2.837   7.258  0.2953  0.4496  0.7097
 4750SOL     OW15669   4.979   3.745   3.437  0.8350  0.0842  0.3410
 4750SOL    HW115670   5.073   3.759   3.429  1.0049  0.8322  2.9768
 4750SOL    HW215671   4.966   3.711   3.525 -1.4101  0.2668  0.1490
 4751SOL     OW15672   5.760   6.975   3.880 -0.7837  0.4358 -0.3445
 4751SOL    HW115673   5.773   6.881   3.867  0.4734  0.7608 -1.7826
 4751SOL    HW215674   5.833   7.003   3.935 -0.1437  0.8266 -1.3491
 4752SOL     OW15675   2.061   6.703   1.344  0.0563 -0.2086 -0.2860
 4752SOL    HW115676   2.097   6.679   1.430 -1.5411 -0.5005  0.3437
 4752SOL    HW215677   2.010   6.627   1.318 -2.2282  1.1097  0.1071
 4753SOL     OW15678   1.190   2.461   0.769 -0.4159 -0.2227  0.2273
 4753SOL    HW115679   1.102   2.484   0.799 -0.2692 -0.9139  1.2480
 4753SOL    HW215680   1.182   2.372   0.735 -0.1030 -0.3136  0.3868
 4754SOL     OW15681   0.164   5.678   3.898  0.1917  0.2290 -0.1853
 4754SOL    HW115682   0.191   5.708   3.812  0.0674 -0.0949 -0.3398
 4754SOL    HW215683   0.195   5.587   3.902  1.0115  0.5266  0.4664
 4755SOL     OW15684   7.921   5.617   5.100 -0.0447 -0.0911  0.5495
 4755SOL    HW115685   7.939   5.687   5.037 -1.0939 -0.6586 -0.4119
 4755SOL    HW215686   7.969   5.541   5.067 -0.7749 -0.4517  0.2894
 4756SOL     OW15687   7.514   6.269   5.900 -0.1948 -1.2395 -0.4792
 4756SOL    HW115688   7.454   6.296   5.831 -2.3029 -1.5882  1.1249
 4756SOL    HW215689   7.476   6.189   5.936  0.9174 -1.1743  0.9661
 4757SOL     OW15690   3.234   1.219   1.536 -0.3697  0.6137 -0.1130
 4757SOL    HW115691   3.174   1.156   1.577  0.3358  0.1402  0.2107
 4757SOL    HW215692   3.192   1.304   1.550 -1.0017  0.2856  0.0466
 4758SOL     OW15693   6.970   3.988   0.288  0.1404  0.7827  0.6882
 4758SOL    HW115694   6.988   4.080   0.308 -0.2345  0.9927  0.0946
 4758SOL    HW215695   6.899   3.991   0.224  0.5768  0.1018  0.1591
 4759SOL     OW15696   6.377   0.973   0.751  0.3499 -1.0937  0.7871
 4759SOL    HW115697   6.368   0.918   0.829 -0.7900 -1.8103  0.1781
 4759SOL    HW215698   6.451   0.934   0.704  0.2438 -1.4360  0.8972
 4760SOL     OW15699   2.083   6.646   7.967 -0.3655  0.4521 -0.4402
 4760SOL    HW115700   2.172   6.612   7.974 -0.5258  0.4116  2.6006
 4760SOL    HW215701   2.094   6.741   7.957  0.0664  0.5625  0.8814
 4761SOL     OW15702   2.753   5.841   2.562  0.3373  0.3332  0.0879
 4761SOL    HW115703   2.678   5.859   2.506  0.2419  1.6405  0.6107
 4761SOL    HW215704   2.814   5.793   2.505 -0.3677  0.3420 -0.6941
 4762SOL     OW15705   6.993   6.165   0.619 -0.0087 -0.4258 -0.5162
 4762SOL    HW115706   7.028   6.252   0.636 -0.0556 -0.4394 -0.3439
 4762SOL    HW215707   6.961   6.168   0.529 -0.1149 -0.2321 -0.4706
 4763SOL     OW15708   2.262   4.768   0.291  0.4645  0.7179  0.8036
 4763SOL    HW115709   2.215   4.850   0.307 -0.0507  0.8310 -1.0441
 4763SOL    HW215710   2.354   4.789   0.305  0.3190  1.5726  0.5250
 4764SOL     OW15711   0.065   7.898   1.264 -0.3245  0.1819  0.8255
 4764SOL    HW115712   0.095   7.938   1.182 -1.0154 -0.4221  0.2636
 4764SOL    HW215713   0.035   7.972   1.317  0.8475  0.6552  0.8585
 4765SOL     OW15714   4.901   3.535   4.735 -0.4331 -0.2666 -0.1858
 4765SOL    HW115715   4.850   3.483   4.672 -0.8193 -1.0291  0.7409
 4765SOL    HW215716   4.899   3.624   4.699 -0.1220 -0.7830 -1.5736
 4766SOL     OW15717   7.092   5.711   0.659  0.0327  0.6600 -0.2504
 4766SOL    HW115718   7.162   5.687   0.599  1.1188  1.3407  0.6963
 4766SOL    HW215719   7.017   5.658   0.632  1.1683 -0.7473 -0.7420
 4767SOL     OW15720   1.975   1.981   0.041  0.3435  0.0637  0.2334
 4767SOL    HW115721   1.937   1.897   0.017 -1.3490  1.2167 -1.4849
 4767SOL    HW215722   1.986   2.027  -0.043  0.2026  1.9297  1.1738
 4768SOL     OW15723   0.411   1.303   7.586  0.3772 -1.0472  0.3499
 4768SOL    HW115724   0.341   1.295   7.651 -0.0543 -3.3530 -0.3106
 4768SOL    HW215725   0.366   1.324   7.504  0.5670 -1.4584  0.1372
 4769SOL     OW15726   1.979   3.859   2.609  0.0855 -0.7080  0.4015
 4769SOL    HW115727   2.048   3.794   2.599 -0.7835 -1.3443 -2.2484
 4769SOL    HW215728   2.005   3.932   2.553 -0.4262 -0.0882  0.9495
 4770SOL     OW15729   2.408   7.132   7.368 -0.0274 -0.2494  0.0402
 4770SOL    HW115730   2.472   7.190   7.327  1.1659 -0.7949  1.0819
 4770SOL    HW215731   2.325   7.156   7.326  0.9868 -0.2823 -2.1610
 4771SOL     OW15732   4.031   2.763   0.761 -0.4764  0.1923 -0.5029
 4771SOL    HW115733   4.092   2.811   0.817  0.2572  0.8757 -1.8389
 4771SOL    HW215734   4.017   2.680   0.807  0.7778  0.3722  0.2576
 4772SOL     OW15735   6.616   0.610   3.411 -0.0196  0.4009  0.1020
 4772SOL    HW115736   6.531   0.650   3.428  0.5947  1.5230  0.6428
 4772SOL    HW215737   6.651   0.658   3.336  0.1705 -0.0023 -0.0706
 4773SOL     OW15738   0.895   6.335   7.484  0.1723  0.2597  0.1558
 4773SOL    HW115739   0.898   6.240   7.474 -0.8959  0.2345  0.0274
 4773SOL    HW215740   0.986   6.360   7.502  0.5127 -0.7474 -0.1202
 4774SOL     OW15741   2.935   7.770   5.938  0.2664  0.0130  0.0402
 4774SOL    HW115742   2.860   7.829   5.930  0.0017 -0.2937  0.2629
 4774SOL    HW215743   2.938   7.725   5.853 -0.7333 -1.0733  0.5421
 4775SOL     OW15744   0.899   1.306   3.107  0.2224  0.1549  0.4376
 4775SOL    HW115745   0.978   1.253   3.120 -2.0331 -3.8896 -0.5708
 4775SOL    HW215746   0.897   1.324   3.013 -0.2078 -0.1173  0.3906
 4776SOL     OW15747   1.296   6.967   0.272  0.1220  0.2821 -0.3438
 4776SOL    HW115748   1.213   6.932   0.306  0.5091 -0.5104 -0.1932
 4776SOL    HW215749   1.287   6.960   0.177 -0.6162  1.6971 -0.4043
 4777SOL     OW15750   7.469   2.540   4.812 -0.3430  0.2234  0.4940
 4777SOL    HW115751   7.428   2.529   4.726  1.5141  0.0056 -0.4065
 4777SOL    HW215752   7.438   2.466   4.863 -0.2074 -0.5537 -0.5253
 4778SOL     OW15753   4.931   0.375   7.478  0.5207  0.2082  1.1244
 4778SOL    HW115754   4.883   0.360   7.560  0.6664 -0.5282  1.0851
 4778SOL    HW215755   5.017   0.406   7.506  0.8734 -0.8725  1.2992
 4779SOL     OW15756   4.395   3.482   2.603  0.2544  0.3201  0.0071
 4779SOL    HW115757   4.424   3.403   2.558 -1.8789 -1.0340  0.8455
 4779SOL    HW215758   4.351   3.533   2.535 -0.5218 -0.4041 -0.0489
 4780SOL     OW15759   2.612   2.769   6.244  0.2702 -0.1923 -0.0968
 4780SOL    HW115760   2.557   2.772   6.167  1.2679 -2.0225 -0.9414
 4780SOL    HW215761   2.580   2.694   6.294  0.1483  0.4906  0.8775
 4781SOL     OW15762   3.491   2.177   7.416 -0.2318 -0.2346  0.0740
 4781SOL    HW115763   3.499   2.272   7.405  0.8330 -0.5232 -2.3612
 4781SOL    HW215764   3.581   2.145   7.412 -0.6105 -1.4053  0.5071
 4782SOL     OW15765   2.449   0.599   1.215  0.1217 -0.0096  0.5996
 4782SOL    HW115766   2.401   0.601   1.132  0.8007 -0.4644  0.1851
 4782SOL    HW215767   2.477   0.509   1.224  0.5402  0.1644  1.0406
 4783SOL     OW15768   2.913   3.215   0.932  0.1443 -0.4629  0.5666
 4783SOL    HW115769   2.980   3.278   0.906  1.3308 -1.5007  1.0014
 4783SOL    HW215770   2.868   3.193   0.851  1.4559 -1.0097 -0.0407
 4784SOL     OW15771   8.018   2.429   4.334 -0.3852 -0.5041 -0.0074
 4784SOL    HW115772   8.112   2.446   4.338 -0.3784 -0.6975  0.8668
 4784SOL    HW215773   7.984   2.464   4.416 -0.9873 -0.9517 -0.0598
 4785SOL     OW15774   1.417   5.899   3.586 -0.3539  0.0120  0.0580
 4785SOL    HW115775   1.331   5.868   3.612  0.4523 -1.9119  0.6146
 4785SOL    HW215776   1.425   5.985   3.627 -3.0550  1.5381 -2.3262
 4786SOL     OW15777   5.542   3.977   1.270 -0.1980  0.3244  0.5912
 4786SOL    HW115778   5.471   3.931   1.315 -0.3703  0.5674  0.5642
 4786SOL    HW215779   5.596   4.012   1.341 -0.0394  0.0441  0.6128
 4787SOL     OW15780   6.603   0.158   1.431 -0.3474 -0.9387 -0.1601
 4787SOL    HW115781   6.672   0.220   1.407 -0.3794 -0.5558  0.7123
 4787SOL    HW215782   6.527   0.186   1.380 -0.2474 -0.5127 -0.0814
 4788SOL     OW15783   2.697   3.984   1.170 -0.1404 -0.3195  0.0822
 4788SOL    HW115784   2.718   3.931   1.247 -1.2042 -0.7143  0.1121
 4788SOL    HW215785   2.612   3.952   1.141 -0.5885  1.0522 -0.1870
 4789SOL     OW15786   6.699   1.094   6.044 -0.7656  0.1113 -0.3729
 4789SOL    HW115787   6.748   1.176   6.038 -2.0789  0.8717 -1.5386
 4789SOL    HW215788   6.763   1.026   6.024  0.3410  0.8345  0.5663
 4790SOL     OW15789   3.687   0.421   5.688  0.1176  0.1584  0.4921
 4790SOL    HW115790   3.690   0.389   5.778  0.4952 -1.0226  0.0757
 4790SOL    HW215791   3.769   0.468   5.676 -0.3415  1.1327  1.0389
 4791SOL     OW15792   0.794   7.754   2.370 -0.3808 -0.9807  0.4205
 4791SOL    HW115793   0.871   7.704   2.342 -0.6095 -1.2298  0.2360
 4791SOL    HW215794   0.804   7.762   2.465 -0.9913 -2.4845  0.6329
 4792SOL     OW15795   3.305   3.158   2.691 -0.0788  0.3965  0.2483
 4792SOL    HW115796   3.225   3.106   2.695  0.9610 -1.2734  0.2564
 4792SOL    HW215797   3.281   3.242   2.731 -1.2686 -0.8010  2.2244
 4793SOL     OW15798   1.735   4.537   5.312  0.1414  0.3958 -0.1768
 4793SOL    HW115799   1.821   4.496   5.311 -0.2304 -0.6052  2.1913
 4793SOL    HW215800   1.685   4.490   5.246  0.4552 -1.3454  0.7768
 4794SOL     OW15801   2.783   1.448   4.050 -0.3239 -0.4699 -0.3179
 4794SOL    HW115802   2.746   1.406   3.972  3.0286  0.2756 -2.4997
 4794SOL    HW215803   2.828   1.377   4.095  0.5458 -0.3084 -0.9128
 4795SOL     OW15804   4.175   0.826   0.237  0.0641  0.0970  0.8927
 4795SOL    HW115805   4.193   0.902   0.292  1.6271 -0.2838  0.9641
 4795SOL    HW215806   4.194   0.857   0.148 -1.0590  0.2937  0.7064
 4796SOL     OW15807   5.174   6.321   4.676 -0.2819  0.0498  0.1620
 4796SOL    HW115808   5.173   6.228   4.654 -0.3581 -0.1406  0.9552
 4796SOL    HW215809   5.255   6.354   4.635  0.3307 -0.5987  0.8222
 4797SOL     OW15810   3.127   3.113   6.452 -0.0691 -0.1199  0.2660
 4797SOL    HW115811   3.217   3.141   6.470 -0.1045 -0.0709  0.3691
 4797SOL    HW215812   3.083   3.121   6.536 -0.2634  0.2134  0.1329
 4798SOL     OW15813   0.071   6.605   5.210 -0.1702 -0.2978 -0.5094
 4798SOL    HW115814   0.158   6.600   5.171 -0.5423  0.3281 -1.4674
 4798SOL    HW215815   0.069   6.691   5.252 -0.5089 -0.0614 -0.9899
 4799SOL     OW15816   1.333   0.930   6.295 -0.5945 -0.0404 -0.9337
 4799SOL    HW115817   1.259   0.991   6.305 -0.5152  0.0675 -0.9964
 4799SOL    HW215818   1.359   0.908   6.384  1.5030  2.5929 -0.7719
 4800SOL     OW15819   6.807   7.892   0.378 -0.3517  0.9482 -0.2815
 4800SOL    HW115820   6.803   7.987   0.369  1.2565  1.0326 -0.5093
 4800SOL    HW215821   6.784   7.859   0.291  0.2442  1.1858 -0.5367
 4801SOL     OW15822   1.815   7.581   3.799  0.2193 -0.2179  0.1518
 4801SOL    HW115823   1.854   7.583   3.886 -1.1089  0.6360  0.7505
 4801SOL    HW215824   1.869   7.641   3.747  2.3115 -2.2974 -0.2411
 4802SOL     OW15825   8.047   2.852   3.525 -0.2099 -0.0039  0.4556
 4802SOL    HW115826   8.059   2.759   3.507 -0.5646 -0.0716  0.5665
 4802SOL    HW215827   8.045   2.858   3.621 -4.4352 -0.4716  0.5654
 4803SOL     OW15828   0.015   5.917   1.625 -0.8366  0.3467  0.4246
 4803SOL    HW115829  -0.007   5.985   1.560  2.1302  0.5695 -0.4642
 4803SOL    HW215830  -0.046   5.933   1.697 -1.8949  2.3458 -0.8108
 4804SOL     OW15831   0.467   7.380   5.007  0.1648  0.7746  0.0468
 4804SOL    HW115832   0.511   7.297   4.988  0.0542  0.4098  1.3140
 4804SOL    HW215833   0.412   7.395   4.930 -2.3504 -2.0362  1.0865
 4805SOL     OW15834   6.852   6.280   7.033 -0.6120 -0.0594  0.3255
 4805SOL    HW115835   6.795   6.207   7.006 -2.2063  1.8822 -2.0227
 4805SOL    HW215836   6.792   6.355   7.041  1.3378  1.6266 -0.1254
 4806SOL     OW15837   0.382   2.232   0.796 -0.0562  1.3016 -0.4546
 4806SOL    HW115838   0.461   2.284   0.781  0.4745  0.3585 -1.0449
 4806SOL    HW215839   0.414   2.142   0.801 -1.2078  0.7959 -1.7615
 4807SOL     OW15840   5.603   2.913   0.289  0.2885  0.2761  0.1852
 4807SOL    HW115841   5.542   2.887   0.220  0.7997  1.1069 -0.6135
 4807SOL    HW215842   5.688   2.881   0.259  0.6686  1.4673 -0.0509
 4808SOL     OW15843   4.853   5.952   1.299 -0.0784  0.9427  0.2076
 4808SOL    HW115844   4.808   5.879   1.341 -0.1993  0.5898 -0.5182
 4808SOL    HW215845   4.842   6.026   1.360 -1.2250  0.7383  0.2644
 4809SOL     OW15846   7.574   7.649   5.038  0.3292  0.1112  0.4417
 4809SOL    HW115847   7.521   7.689   5.106 -0.7656 -1.3883  0.5169
 4809SOL    HW215848   7.528   7.671   4.956 -1.1192 -2.0570  0.5737
 4810SOL     OW15849   3.088   0.438   6.827  0.6946  0.1524  0.5030
 4810SOL    HW115850   3.021   0.370   6.834  0.5104 -0.0585 -2.1400
 4810SOL    HW215851   3.170   0.391   6.822  0.6607  0.1651 -0.2752
 4811SOL     OW15852   5.051   5.620   1.324  0.3893 -0.1417 -0.5623
 4811SOL    HW115853   5.017   5.618   1.414 -0.2363 -2.0696 -0.7986
 4811SOL    HW215854   5.139   5.584   1.331  0.5923  0.3312 -0.6432
 4812SOL     OW15855   0.920   6.383   0.579 -0.5935 -0.2157  0.1478
 4812SOL    HW115856   0.939   6.296   0.543  0.4978 -0.5797  1.5239
 4812SOL    HW215857   0.862   6.366   0.653  1.8041 -0.1278  2.1634
 4813SOL     OW15858   2.933   4.757   3.367  0.1498  0.0223  0.0487
 4813SOL    HW115859   2.943   4.851   3.352 -1.7818  0.1396 -0.7090
 4813SOL    HW215860   2.846   4.747   3.404  1.3000 -1.2517  2.7119
 4814SOL     OW15861   5.114   6.239   5.067  0.3080 -0.6030 -0.9630
 4814SOL    HW115862   5.099   6.325   5.028  0.5218 -0.1184 -0.0115
 4814SOL    HW215863   5.027   6.204   5.083  0.0867  1.0331  2.0331
 4815SOL     OW15864   7.543   4.027   1.438 -0.0796 -0.0293  0.0861
 4815SOL    HW115865   7.539   3.989   1.526 -1.1645  0.7869  0.4123
 4815SOL    HW215866   7.514   3.956   1.380 -1.3043  0.0044  0.6068
 4816SOL     OW15867   1.676   7.613   2.189 -0.3613  0.3103  0.4306
 4816SOL    HW115868   1.667   7.651   2.276 -0.1112  4.6962 -1.2237
 4816SOL    HW215869   1.587   7.610   2.154 -0.6266 -2.5588  1.0907
 4817SOL     OW15870   1.234   4.214   2.985  0.1001  0.0969  0.3502
 4817SOL    HW115871   1.279   4.130   2.993 -0.5436 -0.6204 -2.4727
 4817SOL    HW215872   1.269   4.253   2.905 -0.4703  2.0013  0.9725
 4818SOL     OW15873   2.566   0.245   1.531  0.4147  0.0182  0.1714
 4818SOL    HW115874   2.626   0.171   1.521 -1.2892 -1.4985  0.7479
 4818SOL    HW215875   2.578   0.297   1.451  1.3789 -1.0723 -0.4132
 4819SOL     OW15876   3.933   7.227   4.621  0.8208 -0.6792 -0.3264
 4819SOL    HW115877   3.932   7.237   4.717 -1.2560 -0.3308 -0.3368
 4819SOL    HW215878   4.014   7.270   4.594  0.2143  1.5748  1.0889
 4820SOL     OW15879   2.834   7.765   0.982  0.1641 -0.0083 -0.5407
 4820SOL    HW115880   2.839   7.765   0.887 -1.1785 -0.2799 -0.6352
 4820SOL    HW215881   2.917   7.728   1.011  1.4455  1.9020 -1.5152
 4821SOL     OW15882   1.943   4.022   6.630 -0.2503 -0.3099  0.7908
 4821SOL    HW115883   1.986   3.993   6.711  1.2944  2.1740  0.9816
 4821SOL    HW215884   1.918   3.941   6.586  1.2563 -1.8125  2.5144
 4822SOL     OW15885   4.538   1.311   5.257  0.5442 -0.2470  0.5144
 4822SOL    HW115886   4.511   1.322   5.166  2.0116  2.7662  0.2895
 4822SOL    HW215887   4.634   1.303   5.253  0.6552  0.1032  1.7572
 4823SOL     OW15888   2.946   1.830   5.613  0.4040  0.4416  0.0895
 4823SOL    HW115889   3.038   1.816   5.636  0.2510  0.1333  0.5269
 4823SOL    HW215890   2.911   1.742   5.599  0.1157  0.5406  0.1689
 4824SOL     OW15891   2.995   1.728   4.400  0.1600 -0.4247 -0.0922
 4824SOL    HW115892   2.991   1.706   4.307  0.5131  3.9679 -1.3720
 4824SOL    HW215893   3.079   1.694   4.429  0.7982 -0.4431 -1.8531
 4825SOL     OW15894   4.253   5.198   2.064 -0.3124 -0.5985  0.2191
 4825SOL    HW115895   4.249   5.257   1.988 -1.1559 -0.7260  0.1519
 4825SOL    HW215896   4.298   5.249   2.131  1.5414 -0.9020 -0.7172
 4826SOL     OW15897   4.205   4.469   4.313  0.3728  0.2105 -0.1942
 4826SOL    HW115898   4.164   4.473   4.226  0.5341  0.1800 -0.2726
 4826SOL    HW215899   4.272   4.538   4.310 -0.2057  0.8069  0.2108
 4827SOL     OW15900   2.050   3.136   7.562 -0.0792  0.2689  0.0329
 4827SOL    HW115901   2.103   3.081   7.620 -0.2864 -0.3329 -0.3331
 4827SOL    HW215902   1.964   3.140   7.604  0.1277  0.8672  0.3972
 4828SOL     OW15903   6.016   0.214   3.123  0.2015 -0.3955 -0.0083
 4828SOL    HW115904   5.991   0.245   3.036 -0.1273 -1.9608 -0.5095
 4828SOL    HW215905   6.076   0.281   3.156 -0.7609  0.9227 -0.8486
 4829SOL     OW15906   7.512   0.436   1.419 -0.2949 -0.5286 -0.2751
 4829SOL    HW115907   7.513   0.341   1.433  0.3053 -0.7569 -1.7104
 4829SOL    HW215908   7.445   0.450   1.351 -1.1330  0.2116  0.6704
 4830SOL     OW15909   0.950   2.739   5.338 -0.3427 -0.0357  0.0520
 4830SOL    HW115910   1.025   2.790   5.306 -1.3016  0.0643 -2.1902
 4830SOL    HW215911   0.928   2.779   5.422  2.6038 -0.6069  1.2311
 4831SOL     OW15912   6.167   8.029   3.043 -0.2001  0.3750  0.4031
 4831SOL    HW115913   6.086   8.057   3.002  0.7676  0.2131 -1.7904
 4831SOL    HW215914   6.141   7.964   3.108 -1.9155  1.5800  0.9854
 4832SOL     OW15915   3.898   6.748   4.358  0.2400  0.7860  0.0917
 4832SOL    HW115916   3.984   6.784   4.378  0.5264  1.3795 -1.9963
 4832SOL    HW215917   3.854   6.816   4.308 -1.5372  0.5483  1.2485
 4833SOL     OW15918   7.199   5.122   3.976  0.2303 -0.7199  0.2328
 4833SOL    HW115919   7.207   5.059   4.047  1.3977 -1.6375 -0.6805
 4833SOL    HW215920   7.281   5.173   3.980 -0.8189  0.9885  1.1558
 4834SOL     OW15921   3.296   6.274   0.256 -0.6741  0.4775 -0.3328
 4834SOL    HW115922   3.288   6.241   0.345 -0.6493  0.1711 -0.4435
 4834SOL    HW215923   3.367   6.223   0.217 -0.1739  1.1316 -0.2914
 4835SOL     OW15924   5.927   5.764   5.190  0.7672  0.0669  0.3563
 4835SOL    HW115925   5.863   5.739   5.123  0.2425  0.1923  0.8036
 4835SOL    HW215926   6.008   5.781   5.141  0.6748 -0.8476 -0.1335
 4836SOL     OW15927   4.508   6.453   2.457  0.1201 -0.5853 -0.4538
 4836SOL    HW115928   4.479   6.400   2.530  0.2630 -0.6211 -0.4225
 4836SOL    HW215929   4.472   6.540   2.474  0.8788 -0.3790  0.1031
 4837SOL     OW15930   1.978   2.647   4.800 -0.4260 -0.0363  0.0898
 4837SOL    HW115931   2.003   2.705   4.727  0.1228  0.4306  0.6339
 4837SOL    HW215932   2.052   2.652   4.860 -1.6951  1.1876  1.6524
 4838SOL     OW15933   5.334   5.330   4.402 -0.4912  0.6380 -0.2996
 4838SOL    HW115934   5.318   5.236   4.403 -1.5212  0.7841  1.4940
 4838SOL    HW215935   5.247   5.370   4.393 -0.2085  1.4123  0.2524
 4839SOL     OW15936   6.483   5.384   7.148 -0.0392 -0.0337  0.5388
 4839SOL    HW115937   6.547   5.428   7.093  0.5523  1.2041  2.1244
 4839SOL    HW215938   6.400   5.392   7.100  0.5069  0.6886 -0.3118
 4840SOL     OW15939   5.314   7.104   2.312 -0.1218 -0.1118  0.3727
 4840SOL    HW115940   5.360   7.079   2.392 -1.3478 -0.9165  0.8559
 4840SOL    HW215941   5.384   7.128   2.251  0.8137  1.2506  1.8899
 4841SOL     OW15942   5.540   4.094   6.492  0.3952 -0.1721  0.5562
 4841SOL    HW115943   5.503   4.007   6.506 -2.0470  0.9309  1.5300
 4841SOL    HW215944   5.530   4.138   6.576 -2.1615  2.2949 -0.8719
 4842SOL     OW15945   7.624   4.830   4.180  0.1960  0.0147  0.1326
 4842SOL    HW115946   7.576   4.826   4.097 -0.2985 -0.8132  0.4472
 4842SOL    HW215947   7.681   4.907   4.171 -1.5151  1.3248 -0.0654
 4843SOL     OW15948   7.835   0.564   3.430  0.4321  0.1327 -0.3805
 4843SOL    HW115949   7.766   0.621   3.397  1.2885  0.9899 -0.7462
 4843SOL    HW215950   7.811   0.548   3.521 -0.3724  0.2115 -0.5700
 4844SOL     OW15951   0.764   1.804   4.748  0.5590 -0.5883 -0.1210
 4844SOL    HW115952   0.788   1.748   4.822  2.7009  0.3396 -0.0340
 4844SOL    HW215953   0.669   1.816   4.756  0.8039  0.1842  2.9895
 4845SOL     OW15954   6.901   6.914   7.287 -0.4912  0.1162  0.1611
 4845SOL    HW115955   6.825   6.859   7.306 -1.0647  0.7200 -0.3966
 4845SOL    HW215956   6.883   6.954   7.202  1.3333 -1.2774 -0.9762
 4846SOL     OW15957   1.612   7.640   1.172 -0.2665  0.1106 -0.3824
 4846SOL    HW115958   1.647   7.552   1.181  1.6796  0.8532 -0.2040
 4846SOL    HW215959   1.636   7.666   1.083 -2.5055 -0.1769 -1.1486
 4847SOL     OW15960   7.573   6.436   6.816  0.2208  0.1805 -0.0139
 4847SOL    HW115961   7.585   6.490   6.894  2.1303 -0.5454  0.2195
 4847SOL    HW215962   7.571   6.346   6.848  1.1446 -0.1344 -0.8070
 4848SOL     OW15963   3.330   0.516   4.840 -0.0202  0.0265  0.3715
 4848SOL    HW115964   3.342   0.567   4.921 -0.5381 -0.9158  1.0657
 4848SOL    HW215965   3.419   0.495   4.812  0.2528  2.0796 -0.4654
 4849SOL     OW15966   1.000   6.948   6.437 -0.2232  0.5767  0.1514
 4849SOL    HW115967   0.984   6.930   6.344  1.3685 -0.7723  0.1098
 4849SOL    HW215968   0.937   6.892   6.483 -0.3939  0.5692 -0.0858
 4850SOL     OW15969   7.157   2.415   3.091  0.2407 -0.1236  0.3552
 4850SOL    HW115970   7.250   2.421   3.070 -0.2322  1.3858 -1.4937
 4850SOL    HW215971   7.135   2.322   3.077  1.2140 -0.2689 -0.2782
 4851SOL     OW15972   6.039   2.896   0.367  0.3282 -0.3836 -0.2601
 4851SOL    HW115973   6.122   2.931   0.334  2.1162 -1.1026  3.0334
 4851SOL    HW215974   5.992   2.973   0.400  0.0453 -0.0993 -1.2636
 4852SOL     OW15975   6.059   4.250   5.941 -0.3931 -0.1248 -0.0191
 4852SOL    HW115976   6.100   4.307   5.877 -0.4385  1.9985  1.7041
 4852SOL    HW215977   6.035   4.309   6.013 -1.7596 -2.1192  1.2606
 4853SOL     OW15978   5.328   3.825   1.389  0.5587 -0.3479 -0.0768
 4853SOL    HW115979   5.243   3.866   1.399  1.4187  1.8000 -0.9473
 4853SOL    HW215980   5.343   3.779   1.472 -0.6237  0.8493  0.8366
 4854SOL     OW15981   1.809   0.828   4.196 -0.6181  0.2665 -0.2355
 4854SOL    HW115982   1.881   0.786   4.243 -1.0775 -1.3042 -0.8519
 4854SOL    HW215983   1.730   0.802   4.244 -0.8880  0.6868 -0.4453
 4855SOL     OW15984   7.824   4.003   1.971 -0.5716 -0.5150  0.2024
 4855SOL    HW115985   7.822   4.099   1.972  2.1483 -0.4030  0.1912
 4855SOL    HW215986   7.868   3.980   1.889  0.3755 -1.6880  0.9999
 4856SOL     OW15987   7.955   5.141   3.963 -0.2543 -0.0096 -0.5282
 4856SOL    HW115988   8.004   5.181   3.890 -0.1206  0.4500 -0.1886
 4856SOL    HW215989   7.898   5.211   3.995 -0.3765 -0.2382 -0.2461
 4857SOL     OW15990   5.058   3.289   5.680 -0.1303  0.1897 -0.6153
 4857SOL    HW115991   5.114   3.276   5.756 -1.0485  2.7260  0.6407
 4857SOL    HW215992   5.065   3.383   5.661 -2.9154  0.3905 -1.1391
 4858SOL     OW15993   5.893   3.276   2.623  0.0669 -0.1664  0.2445
 4858SOL    HW115994   5.961   3.249   2.561 -0.6804 -0.8095 -0.3159
 4858SOL    HW215995   5.878   3.368   2.604 -1.1719 -0.6994 -1.5416
 4859SOL     OW15996   7.026   2.267   7.314 -0.7494 -0.1867 -0.6788
 4859SOL    HW115997   7.030   2.357   7.282  1.3268  0.0226 -0.0282
 4859SOL    HW215998   7.070   2.270   7.400 -0.2203 -1.8706 -0.8417
 4860SOL     OW15999   1.219   6.893   0.674 -1.0495  0.6305  0.0587
 4860SOL    HW116000   1.176   6.810   0.652 -0.7490  0.2708  0.8021
 4860SOL    HW216001   1.202   6.905   0.767 -1.7138  1.7861 -0.1848
 4861SOL     OW16002   4.928   1.222   5.910 -0.8020 -0.2707  0.1691
 4861SOL    HW116003   4.884   1.138   5.924  0.7304 -0.6820  3.6950
 4861SOL    HW216004   5.019   1.197   5.890  0.0249  0.3944  2.7025
 4862SOL     OW16005   3.049   4.027   2.744 -0.0958  0.2132 -0.3229
 4862SOL    HW116006   3.066   4.049   2.653 -0.1978 -0.1313 -0.4258
 4862SOL    HW216007   2.972   3.969   2.741 -0.9052  1.2282  0.0782
 4863SOL     OW16008   3.637   6.481   4.442 -0.3941  0.1752  0.1245
 4863SOL    HW116009   3.624   6.549   4.375  1.5158 -0.3718 -0.8765
 4863SOL    HW216010   3.560   6.425   4.435 -1.0864  1.1714 -0.3540
 4864SOL     OW16011   0.179   2.300   4.041  0.4520 -0.0812  0.0359
 4864SOL    HW116012   0.118   2.226   4.041  1.4999 -0.9742 -1.3482
 4864SOL    HW216013   0.122   2.377   4.036 -0.6401 -0.7855  1.0656
 4865SOL     OW16014   1.671   1.193   1.813 -0.2464 -0.5078 -0.4150
 4865SOL    HW116015   1.726   1.271   1.812 -1.9436  0.8523  1.7113
 4865SOL    HW216016   1.732   1.120   1.805  1.7643  0.9423  0.8100
 4866SOL     OW16017   0.186   7.720   7.190  0.4019 -0.0576 -0.3797
 4866SOL    HW116018   0.115   7.665   7.223  1.0100 -0.1466  0.8388
 4866SOL    HW216019   0.142   7.789   7.140 -0.4825 -0.6189 -0.3981
 4867SOL     OW16020   0.634   4.074   6.180 -0.1941 -0.3072 -0.7191
 4867SOL    HW116021   0.581   4.151   6.203  1.5689  1.0216 -0.8595
 4867SOL    HW216022   0.611   4.054   6.090 -1.1694 -0.3839 -0.4600
 4868SOL     OW16023   2.499   5.611   1.387 -0.1781 -0.5683 -0.1845
 4868SOL    HW116024   2.453   5.547   1.332 -0.6945 -0.0886 -0.3264
 4868SOL    HW216025   2.584   5.571   1.405 -0.6409 -1.4687  0.0647
 4869SOL     OW16026   3.567   0.681   0.065  0.2022 -0.0792 -0.4620
 4869SOL    HW116027   3.643   0.732   0.092 -0.1344  0.1253  0.1205
 4869SOL    HW216028   3.507   0.746   0.028 -0.1709 -0.0546  0.1583
 4870SOL     OW16029   0.430   6.796   1.216 -0.0505 -0.1914  0.0593
 4870SOL    HW116030   0.355   6.851   1.241  0.5778  0.7232 -0.0051
 4870SOL    HW216031   0.460   6.834   1.133 -0.0370 -1.0849 -0.3490
 4871SOL     OW16032   5.145   6.354   5.686 -0.7180 -0.2108  0.4857
 4871SOL    HW116033   5.059   6.335   5.648 -0.5599 -0.3597  0.1961
 4871SOL    HW216034   5.201   6.282   5.657 -0.7270 -0.6388  1.4677
 4872SOL     OW16035   5.539   4.000   0.589 -0.1216  0.6125 -0.1013
 4872SOL    HW116036   5.571   4.063   0.524 -1.1180  2.7006  1.3085
 4872SOL    HW216037   5.601   4.007   0.661  0.2698 -0.7416 -0.2894
 4873SOL     OW16038   6.632   6.477   3.652 -0.2124 -0.2094  0.2985
 4873SOL    HW116039   6.550   6.432   3.673 -0.0793 -0.1390  0.9796
 4873SOL    HW216040   6.609   6.537   3.581 -0.8776  0.2063  0.8555
 4874SOL     OW16041   2.441   2.117   7.740 -0.1680  0.2026 -0.7111
 4874SOL    HW116042   2.472   2.065   7.665 -0.7273  1.0583 -1.5604
 4874SOL    HW216043   2.422   2.052   7.807  2.1149 -0.4707 -0.6220
 4875SOL     OW16044   1.079   7.231   0.212  0.3123 -0.2139  0.2394
 4875SOL    HW116045   1.123   7.316   0.220 -0.8319  0.4903 -0.5983
 4875SOL    HW216046   1.103   7.199   0.126 -0.5189  0.0200 -0.0900
 4876SOL     OW16047   7.611   5.554   3.030  0.5629  0.1576 -0.0961
 4876SOL    HW116048   7.545   5.518   3.088 -0.4963  0.5850 -1.0022
 4876SOL    HW216049   7.686   5.495   3.039 -0.9783 -2.1169 -1.2691
 4877SOL     OW16050   4.473   5.195   0.960  0.3184  0.2845 -0.6910
 4877SOL    HW116051   4.404   5.138   0.993 -0.0505  1.5153  0.8329
 4877SOL    HW216052   4.550   5.139   0.954 -0.7028 -1.0542 -2.1849
 4878SOL     OW16053   7.274   6.470   2.702 -0.2801 -0.0437  0.2792
 4878SOL    HW116054   7.355   6.490   2.750  0.1195 -0.0585 -0.3766
 4878SOL    HW216055   7.291   6.501   2.613 -0.6659 -0.8476 -0.0811
 4879SOL     OW16056   5.678   5.350   3.566  0.2270  0.5273 -0.6476
 4879SOL    HW116057   5.691   5.427   3.621 -1.2856  1.5771 -1.6810
 4879SOL    HW216058   5.743   5.287   3.597  0.0586  1.4052  1.6887
 4880SOL     OW16059   4.532   6.976   4.676  0.2983 -0.6285 -0.5773
 4880SOL    HW116060   4.536   6.884   4.703  1.7283 -0.2759  0.5931
 4880SOL    HW216061   4.598   6.984   4.608 -0.4486 -0.6350 -1.3186
 4881SOL     OW16062   7.143   5.372   7.840 -0.4792 -0.2295 -0.3183
 4881SOL    HW116063   7.237   5.393   7.836 -0.4312 -0.4592 -0.4751
 4881SOL    HW216064   7.099   5.456   7.837 -0.3053 -0.1678 -1.3259
 4882SOL     OW16065   6.905   6.461   2.604  0.2835  0.1080  0.1919
 4882SOL    HW116066   6.967   6.494   2.669  0.6463 -2.0124  0.9973
 4882SOL    HW216067   6.923   6.512   2.525  2.2204  0.3532  0.7571
 4883SOL     OW16068   7.005   5.428   2.318 -0.2773 -0.4273  0.5004
 4883SOL    HW116069   6.972   5.481   2.390  0.3975  0.0730  0.4545
 4883SOL    HW216070   6.999   5.338   2.350  0.0571 -0.2097  1.2036
 4884SOL     OW16071   6.697   1.352   5.920  0.7353 -0.7762  0.2579
 4884SOL    HW116072   6.654   1.279   5.877 -0.0938  0.0451 -0.3440
 4884SOL    HW216073   6.710   1.417   5.851  0.5863  0.0298  0.9592
 4885SOL     OW16074   6.622   5.098   4.764 -0.5453 -0.7479  0.1621
 4885SOL    HW116075   6.599   5.018   4.715  0.0470 -0.8232  0.0012
 4885SOL    HW216076   6.548   5.157   4.750 -0.3983 -0.7782 -0.8130
 4886SOL     OW16077   6.866   4.811   2.788 -0.5243 -0.5307  0.2221
 4886SOL    HW116078   6.926   4.817   2.862 -1.2361  1.0502  0.7183
 4886SOL    HW216079   6.796   4.753   2.818 -0.4189 -0.5141  0.5001
 4887SOL     OW16080   3.185   2.271   2.695 -0.4264  0.1809  0.3278
 4887SOL    HW116081   3.120   2.306   2.634 -0.9825 -2.0696 -0.4879
 4887SOL    HW216082   3.147   2.285   2.781 -0.5976  1.5736  0.0411
 4888SOL     OW16083   0.423   6.370   5.163  0.0360 -0.4766  0.3161
 4888SOL    HW116084   0.418   6.291   5.108  0.5385 -0.3063  0.0144
 4888SOL    HW216085   0.425   6.337   5.252 -0.2498 -0.7838  0.2131
 4889SOL     OW16086   5.053   7.791   7.110  0.1447  0.4495  0.4054
 4889SOL    HW116087   5.060   7.701   7.140  0.2524 -0.0313 -0.9774
 4889SOL    HW216088   4.965   7.818   7.137 -0.4855 -0.6031 -0.5082
 4890SOL     OW16089   5.009   1.760   1.046 -0.0357  0.5141  0.2949
 4890SOL    HW116090   4.985   1.674   1.081 -0.4250  0.2632 -0.5656
 4890SOL    HW216091   4.988   1.755   0.953 -0.7799  1.7976  0.3742
 4891SOL     OW16092   3.762   7.074   0.278 -0.2602 -0.6915  0.4654
 4891SOL    HW116093   3.782   7.006   0.214 -0.3429  0.7504 -1.1452
 4891SOL    HW216094   3.691   7.124   0.239  0.2917  0.7646  1.2640
 4892SOL     OW16095   6.660   6.412   1.355 -0.1814 -0.1172 -0.1452
 4892SOL    HW116096   6.737   6.383   1.306  0.0054  1.1679 -0.6326
 4892SOL    HW216097   6.667   6.507   1.357  0.0405 -0.1141  2.7619
 4893SOL     OW16098   1.845   5.044   3.666 -0.8108  0.3388 -0.4377
 4893SOL    HW116099   1.876   5.006   3.584  1.8158 -1.2260  1.1251
 4893SOL    HW216100   1.921   5.038   3.725 -2.0636  2.9100  1.6379
 4894SOL     OW16101   4.197   7.861   2.798 -0.2183  0.1033  0.1046
 4894SOL    HW116102   4.146   7.909   2.732  1.0163  0.1975 -0.8414
 4894SOL    HW216103   4.154   7.776   2.805  0.6934 -0.6352 -2.2968
 4895SOL     OW16104   7.264   2.723   7.123  0.9907  0.1723 -0.4537
 4895SOL    HW116105   7.320   2.743   7.048  1.9985 -0.7507  0.0308
 4895SOL    HW216106   7.269   2.802   7.177 -0.1374  1.0450 -1.5566
 4896SOL     OW16107   5.218   1.016   1.023 -0.6763  0.0781  0.4138
 4896SOL    HW116108   5.197   0.972   1.105 -2.1892 -3.3324 -1.5624
 4896SOL    HW216109   5.287   0.962   0.984 -0.5597  1.1387 -0.9007
 4897SOL     OW16110   2.323   0.968   1.304 -0.0543 -0.0660  0.6889
 4897SOL    HW116111   2.374   0.901   1.350  0.6074 -0.0018  0.0640
 4897SOL    HW216112   2.331   0.945   1.212 -1.5227 -0.2890  0.5991
 4898SOL     OW16113   0.934   3.468   0.516  0.2064  0.0823  0.2807
 4898SOL    HW116114   0.999   3.511   0.570 -1.1539  0.1473  1.9434
 4898SOL    HW216115   0.894   3.402   0.573 -2.3099  1.1570 -0.1000
 4899SOL     OW16116   6.746   2.450   1.056  0.0713  0.6299  0.0339
 4899SOL    HW116117   6.773   2.530   1.010 -0.4553  0.6169 -0.2990
 4899SOL    HW216118   6.670   2.477   1.108 -1.5550 -0.1477 -1.8223
 4900SOL     OW16119   7.684   6.816   6.786 -0.1235  0.2841  0.0528
 4900SOL    HW116120   7.629   6.796   6.862 -0.8867 -1.1313 -0.8121
 4900SOL    HW216121   7.771   6.829   6.822 -0.2356 -1.5008  1.0949
 4901SOL     OW16122   5.961   6.447   2.227 -0.3960 -0.0760 -0.2405
 4901SOL    HW116123   5.869   6.468   2.240 -0.2706  0.4706 -0.1839
 4901SOL    HW216124   5.998   6.448   2.316  0.4274  3.4770 -0.4773
 4902SOL     OW16125   0.894   7.729   5.251 -0.4655 -0.3885 -0.7609
 4902SOL    HW116126   0.893   7.822   5.231 -2.9797 -0.0131  0.6907
 4902SOL    HW216127   0.803   7.701   5.240 -0.1102 -2.2527  0.5471
 4903SOL     OW16128   2.687   5.976   5.928 -0.6725  0.2190 -0.7391
 4903SOL    HW116129   2.725   5.926   6.000 -0.9207  1.9760  0.6907
 4903SOL    HW216130   2.593   5.978   5.947 -0.7096  0.9275 -0.9397
 4904SOL     OW16131   2.305   5.061   4.849 -0.0081  0.1623  0.2733
 4904SOL    HW116132   2.230   5.084   4.903 -1.7214  0.0647 -1.9210
 4904SOL    HW216133   2.301   5.122   4.775  2.7402  0.8768  0.5698
 4905SOL     OW16134   5.645   1.891   5.475 -0.1575  0.0811  0.5337
 4905SOL    HW116135   5.728   1.881   5.428  2.0514  2.1754  3.5782
 4905SOL    HW216136   5.592   1.946   5.418  0.7138 -0.8468 -1.2683
 4906SOL     OW16137   7.718   5.087   1.571 -0.3733  0.3598 -0.4889
 4906SOL    HW116138   7.622   5.076   1.569 -0.1693 -2.6866  1.2415
 4906SOL    HW216139   7.733   5.150   1.641 -1.0839 -0.1722  0.1602
 4907SOL     OW16140   4.956   5.616   1.572  0.4810 -0.2309  0.1544
 4907SOL    HW116141   4.919   5.544   1.623  0.3619 -0.5210 -0.3451
 4907SOL    HW216142   4.884   5.678   1.562 -0.2989 -1.3884 -1.9508
 4908SOL     OW16143   0.234   2.561   3.404 -0.2438 -0.2986 -0.0216
 4908SOL    HW116144   0.213   2.600   3.489 -0.2510  0.7919 -0.5087
 4908SOL    HW216145   0.246   2.468   3.423 -2.8231 -0.5565  0.7649
 4909SOL     OW16146   4.068   6.330   7.221 -0.5657 -0.7101 -0.5246
 4909SOL    HW116147   3.980   6.362   7.202 -0.1041  0.1250 -1.3676
 4909SOL    HW216148   4.065   6.237   7.200 -1.5490 -0.9306  0.5510
 4910SOL     OW16149   7.037   0.192   3.083  0.4239  0.0319 -0.0523
 4910SOL    HW116150   7.015   0.119   3.141 -2.1485 -0.3662 -1.3671
 4910SOL    HW216151   7.011   0.270   3.131 -1.1615 -0.2560 -0.4073
 4911SOL     OW16152   4.489   1.901   4.384  0.1184  0.9452  0.4818
 4911SOL    HW116153   4.397   1.899   4.411  0.6832  2.5279  2.9384
 4911SOL    HW216154   4.495   1.975   4.324 -0.3525  0.2972 -0.3726
 4912SOL     OW16155   6.760   6.664   0.945  0.3947 -0.8308  0.0962
 4912SOL    HW116156   6.850   6.697   0.952  1.2543 -2.3446 -2.5735
 4912SOL    HW216157   6.706   6.742   0.951  2.0493  0.4497 -0.7766
 4913SOL     OW16158   0.394   6.210   3.659 -0.1346 -0.1654 -0.0044
 4913SOL    HW116159   0.323   6.252   3.610 -0.9573 -1.0627  0.3921
 4913SOL    HW216160   0.466   6.205   3.597 -0.2430  1.2197 -0.2581
 4914SOL     OW16161   2.649   3.008   6.363  0.0736  0.2607  0.3165
 4914SOL    HW116162   2.648   2.982   6.455 -1.3972 -1.0253 -0.0204
 4914SOL    HW216163   2.654   2.926   6.314  0.9521  0.9253 -0.7768
 4915SOL     OW16164   6.532   3.713   7.449  0.4072  0.6225 -0.0489
 4915SOL    HW116165   6.505   3.805   7.446  3.2226  1.5541  0.4657
 4915SOL    HW216166   6.494   3.680   7.531 -1.7472  0.8686 -0.8812
 4916SOL     OW16167   3.872   5.404   2.814 -0.1975 -0.4109  0.5282
 4916SOL    HW116168   3.948   5.441   2.769 -0.6037  0.3265  0.4259
 4916SOL    HW216169   3.797   5.430   2.760 -0.4637 -1.7373  0.2454
 4917SOL     OW16170   3.620   0.113   4.200  0.0800  0.3548  0.1245
 4917SOL    HW116171   3.701   0.067   4.176  0.3924  0.8931  0.1302
 4917SOL    HW216172   3.598   0.076   4.286  0.5723  0.5224  0.3313
 4918SOL     OW16173   0.491   3.683   2.941 -0.4600 -0.0288 -0.3473
 4918SOL    HW116174   0.493   3.777   2.957  1.9465  0.1566 -1.3836
 4918SOL    HW216175   0.543   3.645   3.011  1.2124 -0.2310 -1.6385
 4919SOL     OW16176   2.110   2.996   7.325 -0.2658  0.4847 -0.1509
 4919SOL    HW116177   2.142   2.992   7.415 -1.2480  1.1730  0.2547
 4919SOL    HW216178   2.019   3.026   7.334 -0.1199  1.3860 -1.4262
 4920SOL     OW16179   4.363   2.985   2.979 -0.7299  0.0878  0.1059
 4920SOL    HW116180   4.270   3.007   2.982 -0.8753 -0.5877  2.0395
 4920SOL    HW216181   4.398   3.023   3.059  0.1504 -1.7664  0.6507
 4921SOL     OW16182   5.266   5.488   2.217  0.0118 -0.2916 -0.1357
 4921SOL    HW116183   5.220   5.424   2.271 -0.6276  0.4226  0.1983
 4921SOL    HW216184   5.250   5.460   2.127 -1.5888  0.2343 -0.0526
 4922SOL     OW16185   5.977   4.623   1.873  0.6330  0.0546  0.1894
 4922SOL    HW116186   5.978   4.534   1.906 -1.2661 -0.8635 -1.9641
 4922SOL    HW216187   5.935   4.674   1.943  0.1802 -1.0614  0.7555
 4923SOL     OW16188   0.938   0.758   6.098  0.1417 -0.1676 -0.2419
 4923SOL    HW116189   0.926   0.709   6.016 -0.4389  1.7090 -1.3531
 4923SOL    HW216190   0.873   0.828   6.093  2.6583  2.3696 -0.0868
 4924SOL     OW16191   4.738   0.669   1.332  0.0387  0.1282  0.4602
 4924SOL    HW116192   4.647   0.640   1.338 -0.4533  1.6126  0.5361
 4924SOL    HW216193   4.734   0.763   1.346  1.2844  0.6486 -2.0441
 4925SOL     OW16194   3.257   1.358   3.378 -0.2672 -0.1580 -0.0202
 4925SOL    HW116195   3.189   1.293   3.394 -0.0276 -0.6946 -1.1354
 4925SOL    HW216196   3.281   1.389   3.466  0.1976 -2.1571  0.6140
 4926SOL     OW16197   0.686   2.309   6.577 -0.4332  0.0229 -0.3193
 4926SOL    HW116198   0.757   2.356   6.620  0.1796 -0.4520 -0.7900
 4926SOL    HW216199   0.680   2.226   6.625 -0.6512  0.0530 -0.2954
 4927SOL     OW16200   6.670   0.275   2.068  0.2440 -0.8449 -0.1022
 4927SOL    HW116201   6.693   0.184   2.048  0.4874 -1.1121  1.2839
 4927SOL    HW216202   6.659   0.276   2.163 -0.9007  0.3293 -0.2276
 4928SOL     OW16203   3.875   1.417   1.070  0.0220 -0.0712 -0.0668
 4928SOL    HW116204   3.817   1.363   1.123  1.8681 -1.9850  0.1381
 4928SOL    HW216205   3.923   1.355   1.016  0.9795  1.5347 -1.1492
 4929SOL     OW16206   2.997   2.396   6.178  0.5168  0.1488  0.0354
 4929SOL    HW116207   3.034   2.378   6.091 -0.3802  0.5702 -0.4456
 4929SOL    HW216208   2.906   2.418   6.161  0.6622  1.5811  0.9448
 4930SOL     OW16209   3.852   4.775   0.601 -0.4346 -0.7900 -0.3126
 4930SOL    HW116210   3.874   4.695   0.650 -0.4010  0.7424  2.3348
 4930SOL    HW216211   3.924   4.835   0.620 -1.2522  0.4265 -0.9630
 4931SOL     OW16212   1.967   6.901   1.842  0.8273 -0.2777 -0.5588
 4931SOL    HW116213   1.964   6.869   1.933 -1.9082  1.7244  0.2061
 4931SOL    HW216214   2.001   6.990   1.849 -0.8769  0.4702 -1.2072
 4932SOL     OW16215   5.047   3.792   0.666 -0.1261  0.3892 -0.6670
 4932SOL    HW116216   5.083   3.877   0.692 -0.2899  0.6235 -1.1846
 4932SOL    HW216217   5.124   3.736   0.655  0.0441  0.7033 -1.1178
 4933SOL     OW16218   0.875   0.929   0.078 -0.2788 -0.0339  0.0622
 4933SOL    HW116219   0.860   0.838   0.052  1.6535 -0.3117 -0.2945
 4933SOL    HW216220   0.960   0.927   0.122  0.0803  1.6777 -0.4673
 4934SOL     OW16221   3.679   3.197   6.071 -0.1292  0.2525 -0.0619
 4934SOL    HW116222   3.595   3.240   6.092 -0.2181  0.5276 -0.9536
 4934SOL    HW216223   3.654   3.114   6.031  0.0257  0.2332 -0.1166
 4935SOL     OW16224   3.171   0.552   0.041  0.9322 -0.1305  0.1860
 4935SOL    HW116225   3.089   0.537   0.088  1.7563 -1.2601  1.3636
 4935SOL    HW216226   3.145   0.595  -0.040 -0.8504 -0.7249  0.3899
 4936SOL     OW16227   5.048   3.211   6.523  0.3811 -0.4698 -0.3354
 4936SOL    HW116228   5.129   3.166   6.499 -0.6104 -1.9334 -1.0862
 4936SOL    HW216229   5.008   3.235   6.439  0.6216  1.4278  0.0347
 4937SOL     OW16230   4.120   2.812   3.118 -0.0268  0.1310  0.1520
 4937SOL    HW116231   4.127   2.815   3.023 -0.8117  0.5009  0.0937
 4937SOL    HW216232   4.046   2.869   3.138 -0.0348 -0.1518  0.9672
 4938SOL     OW16233   2.382   3.916   0.210  0.0870 -0.2840  0.1562
 4938SOL    HW116234   2.320   3.921   0.282 -0.1205 -0.0184 -0.0386
 4938SOL    HW216235   2.433   3.837   0.227 -0.0665 -0.3076  0.5073
 4939SOL     OW16236   2.030   0.494   4.309 -0.5453  0.1468 -0.6912
 4939SOL    HW116237   2.063   0.580   4.334 -0.6458  0.2399 -0.8848
 4939SOL    HW216238   1.941   0.491   4.345 -0.8432  0.4422 -1.4022
 4940SOL     OW16239   1.258   3.099   4.102 -0.0048  0.7387 -0.3882
 4940SOL    HW116240   1.210   3.173   4.066  0.1742  0.5682 -0.9954
 4940SOL    HW216241   1.229   3.024   4.050  0.4964  0.5438 -0.3953
 4941SOL     OW16242   4.459   6.922   0.015 -0.2736 -0.3590 -0.1869
 4941SOL    HW116243   4.529   6.970   0.058 -0.2386 -0.8726  0.3401
 4941SOL    HW216244   4.395   6.988  -0.009  0.3858  0.1176 -0.6706
 4942SOL     OW16245   2.154   3.632   7.216  0.3887 -0.2509 -0.2841
 4942SOL    HW116246   2.069   3.635   7.173  0.3623  1.6301 -0.2060
 4942SOL    HW216247   2.136   3.598   7.304  0.1947 -2.5305 -1.1371
 4943SOL     OW16248   7.515   3.884   1.196 -0.0058  0.2949  0.0151
 4943SOL    HW116249   7.570   3.881   1.118 -0.1140 -1.0427 -0.0240
 4943SOL    HW216250   7.489   3.793   1.211 -0.3944  0.6004  1.3231
 4944SOL     OW16251   1.928   2.260   5.646 -0.0839  0.5046 -0.0155
 4944SOL    HW116252   1.959   2.177   5.609  1.1458  0.6832  0.5812
 4944SOL    HW216253   1.950   2.326   5.580  0.3601  0.5636  0.1898
 4945SOL     OW16254   6.698   1.911   0.832 -0.0922  0.6726 -0.2163
 4945SOL    HW116255   6.692   1.941   0.741 -0.5785  0.9611 -0.0906
 4945SOL    HW216256   6.645   1.974   0.882 -1.4029 -0.5677  0.0099
 4946SOL     OW16257   5.343   5.404   3.270 -0.3026  0.2270 -0.5457
 4946SOL    HW116258   5.330   5.418   3.364  1.1633  0.0516 -0.2779
 4946SOL    HW216259   5.334   5.491   3.231 -1.2056  0.2551 -0.2923
 4947SOL     OW16260   7.615   3.212   6.755 -0.0416 -0.3156  0.9138
 4947SOL    HW116261   7.683   3.279   6.763  0.7683 -1.0785  0.6008
 4947SOL    HW216262   7.560   3.242   6.683  1.0900 -0.6305 -0.1046
 4948SOL     OW16263   0.217   1.120   4.001 -0.4210 -0.0991  0.0739
 4948SOL    HW116264   0.191   1.096   3.912  0.5351 -0.4712 -0.1115
 4948SOL    HW216265   0.256   1.207   3.992 -0.9501  0.1647  0.2492
 4949SOL     OW16266   2.835   2.372   4.715  0.2518  0.0122 -0.0512
 4949SOL    HW116267   2.835   2.277   4.704 -1.5264  0.0586 -0.8560
 4949SOL    HW216268   2.862   2.385   4.806 -0.1750 -1.3228  0.3016
 4950SOL     OW16269   1.567   2.365   2.388 -0.5129 -0.7395 -0.3955
 4950SOL    HW116270   1.478   2.354   2.354 -0.6987 -1.1229  0.1888
 4950SOL    HW216271   1.565   2.321   2.473  0.2441 -0.7627 -0.3864
 4951SOL     OW16272   4.968   0.438   0.664  0.2484  1.0787 -0.3887
 4951SOL    HW116273   4.978   0.364   0.724  0.1040  2.3816  1.3110
 4951SOL    HW216274   4.881   0.426   0.627  0.3188  0.2737 -0.3302
 4952SOL     OW16275   3.488   5.917   5.524  0.3285  0.0193  0.1601
 4952SOL    HW116276   3.529   5.944   5.442 -0.9778 -0.8580 -0.8017
 4952SOL    HW216277   3.407   5.967   5.528  0.1651 -0.2847  0.6988
 4953SOL     OW16278   3.489   1.471   0.866 -0.5761 -0.3014  0.0398
 4953SOL    HW116279   3.483   1.562   0.835  0.2838 -0.0356  0.6019
 4953SOL    HW216280   3.548   1.476   0.941 -0.6697 -1.3074  0.1908
 4954SOL     OW16281   7.970   6.177   5.008 -0.2974 -0.4606  0.1736
 4954SOL    HW116282   8.040   6.242   5.006 -1.2192  0.5748  0.6249
 4954SOL    HW216283   7.894   6.222   4.971 -0.6608 -1.6565 -0.5768
 4955SOL     OW16284   1.776   5.716   3.903  0.1364 -0.2587  0.1370
 4955SOL    HW116285   1.862   5.756   3.895 -0.1572  1.2264  2.8345
 4955SOL    HW216286   1.786   5.653   3.975 -1.2145  0.7484  1.2633
 4956SOL     OW16287   0.765   0.563   6.783  0.5961  0.4978 -0.3261
 4956SOL    HW116288   0.670   0.578   6.783  0.1235 -1.9672 -1.4823
 4956SOL    HW216289   0.786   0.548   6.875 -0.1972  0.8259 -0.0816
 4957SOL     OW16290   2.832   1.670   2.945  0.4628  0.4129  0.4013
 4957SOL    HW116291   2.878   1.595   2.908  0.0728  0.0883  0.5679
 4957SOL    HW216292   2.752   1.677   2.892 -0.7176 -0.8177  1.9176
 4958SOL     OW16293   4.460   3.466   0.723  0.5469 -0.5708 -0.0750
 4958SOL    HW116294   4.451   3.544   0.668  0.7371 -1.5077 -1.4722
 4958SOL    HW216295   4.534   3.486   0.781  0.7837  0.1658 -0.6116
 4959SOL     OW16296   1.226   2.083   5.294 -0.2156  0.1242  0.0227
 4959SOL    HW116297   1.163   2.120   5.231 -0.5918 -0.1587  0.2269
 4959SOL    HW216298   1.308   2.130   5.276 -0.2618 -0.0979 -0.8136
 4960SOL     OW16299   3.375   2.994   3.487  0.0073 -0.4424 -0.7233
 4960SOL    HW116300   3.421   2.923   3.441  1.8655  1.0549 -1.2892
 4960SOL    HW216301   3.346   3.052   3.417  2.3148  1.5441 -0.1601
 4961SOL     OW16302   7.462   7.348   5.348  0.2336 -0.0061 -0.5186
 4961SOL    HW116303   7.549   7.317   5.375 -0.0076  0.2705  0.6182
 4961SOL    HW216304   7.460   7.439   5.376 -0.7624 -0.2667  0.3059
 4962SOL     OW16305   3.876   7.748   3.649  0.0467  0.0609  0.4414
 4962SOL    HW116306   3.811   7.735   3.718  2.6713 -0.5033  2.9956
 4962SOL    HW216307   3.850   7.831   3.607 -2.8617 -0.6892  0.5611
 4963SOL     OW16308   6.910   2.832   2.187 -0.0047  0.1831  0.2619
 4963SOL    HW116309   6.835   2.849   2.129 -0.1560 -0.1858  0.3455
 4963SOL    HW216310   6.882   2.758   2.241  0.6155 -0.3010 -0.0579
 4964SOL     OW16311   0.247   7.532   1.648  0.0138  0.5070  0.0555
 4964SOL    HW116312   0.218   7.596   1.582  0.3126  0.2294 -0.3528
 4964SOL    HW216313   0.332   7.503   1.616 -0.2951 -0.3945  0.0203
 4965SOL     OW16314   7.633   6.861   4.697 -0.1570 -0.0364  0.2345
 4965SOL    HW116315   7.671   6.945   4.725 -0.1397  0.6115 -1.5479
 4965SOL    HW216316   7.540   6.880   4.686  0.0450  0.1853 -1.4632
 4966SOL     OW16317   3.304   6.026   7.105 -0.2986 -0.9624 -0.6924
 4966SOL    HW116318   3.311   5.937   7.140 -0.3583 -0.4183  0.7943
 4966SOL    HW216319   3.212   6.034   7.081 -0.6978 -0.7601  0.7988
 4967SOL     OW16320   0.275   0.916   1.203 -0.2065 -0.9173  0.3108
 4967SOL    HW116321   0.370   0.910   1.204 -0.1402 -0.0039  0.4469
 4967SOL    HW216322   0.245   0.829   1.176  0.6881 -0.9372 -0.6486
 4968SOL     OW16323   2.981   4.947   1.700 -0.2143 -0.6328 -0.1819
 4968SOL    HW116324   2.915   5.010   1.670 -1.5673 -1.2868  1.2722
 4968SOL    HW216325   3.063   4.981   1.666 -0.7234  2.5700  1.3593
 4969SOL     OW16326   5.843   4.417   5.500 -0.3069 -0.3928  0.1108
 4969SOL    HW116327   5.836   4.323   5.512 -0.8980 -0.1957  1.5103
 4969SOL    HW216328   5.796   4.434   5.418 -1.4870 -1.1594  0.5905
 4970SOL     OW16329   7.662   6.694   4.333  0.3177  0.3792  0.8419
 4970SOL    HW116330   7.714   6.616   4.318 -0.4502  0.1353 -0.8643
 4970SOL    HW216331   7.573   6.669   4.306  0.1722  1.9816 -0.3012
 4971SOL     OW16332   3.006   6.891   4.713 -0.2372 -0.5769 -0.1655
 4971SOL    HW116333   2.936   6.953   4.734 -0.5490 -0.7624 -0.6483
 4971SOL    HW216334   3.067   6.941   4.658 -1.5001 -1.2229 -2.2697
 4972SOL     OW16335   7.797   5.339   4.080  0.4943  0.3139 -0.7743
 4972SOL    HW116336   7.817   5.401   4.151 -1.0988  0.8233 -0.7060
 4972SOL    HW216337   7.719   5.377   4.038 -0.5929 -1.6721 -0.6712
 4973SOL     OW16338   0.046   3.179   5.319  0.2320  0.3979  0.5180
 4973SOL    HW116339   0.097   3.116   5.268  0.8977  0.8810  0.5794
 4973SOL    HW216340  -0.002   3.125   5.382  2.3364  0.0639  1.9433
 4974SOL     OW16341   3.965   5.648   0.923 -0.1983  0.5124  0.1074
 4974SOL    HW116342   4.037   5.666   0.862  0.7323 -0.6867  0.8118
 4974SOL    HW216343   3.891   5.624   0.866  0.4444  0.1226 -0.5825
 4975SOL     OW16344   3.331   1.155   3.768  0.6808 -0.0137  0.3371
 4975SOL    HW116345   3.332   1.071   3.722 -0.1109 -0.4571  1.1106
 4975SOL    HW216346   3.386   1.140   3.845  0.6900  0.2362  0.3786
 4976SOL     OW16347   4.736   3.278   7.846  0.4357 -0.6679 -0.6296
 4976SOL    HW116348   4.827   3.261   7.820  0.1988 -0.0801 -1.9223
 4976SOL    HW216349   4.736   3.369   7.875  0.1354 -0.4368 -1.3210
 4977SOL     OW16350   0.994   3.626   4.265  0.4121  0.3869  0.0136
 4977SOL    HW116351   1.086   3.616   4.290  0.5033  3.6783  1.5923
 4977SOL    HW216352   0.947   3.572   4.328  1.1850 -0.9887 -0.5322
 4978SOL     OW16353   6.041   1.319   5.172  0.0942  0.7813  0.0886
 4978SOL    HW116354   6.087   1.250   5.218 -0.3284 -0.2593 -1.0090
 4978SOL    HW216355   5.974   1.349   5.234  1.1440  1.1764  1.0705
 4979SOL     OW16356   4.382   6.532   6.360  0.0338 -0.2203  0.7252
 4979SOL    HW116357   4.367   6.514   6.268 -0.6881  1.8075  0.3998
 4979SOL    HW216358   4.315   6.481   6.406 -0.3314 -0.3426  0.0610
 4980SOL     OW16359   2.897   5.337   4.083  0.1138  0.3108  0.1595
 4980SOL    HW116360   2.910   5.279   4.158  0.8245 -0.0296 -0.2177
 4980SOL    HW216361   2.888   5.278   4.008  0.2640  0.6700 -0.1441
 4981SOL     OW16362   7.566   2.918   7.903  0.0431  0.0237  0.3306
 4981SOL    HW116363   7.633   2.856   7.930  0.4896  0.1617 -0.4475
 4981SOL    HW216364   7.607   2.970   7.834 -0.7049  0.4181  0.1711
 4982SOL     OW16365   7.668   7.542   6.625  0.0929 -0.2331  0.0075
 4982SOL    HW116366   7.741   7.482   6.612  1.3769  1.3072 -0.1872
 4982SOL    HW216367   7.661   7.589   6.542 -0.0112  0.8043  0.5923
 4983SOL     OW16368   6.630   4.954   1.117 -0.1308  0.0661 -0.8588
 4983SOL    HW116369   6.554   4.943   1.173  1.0193  0.9094  0.9886
 4983SOL    HW216370   6.668   4.866   1.110  1.0216  0.2499  1.7799
 4984SOL     OW16371   6.065   2.159   5.310  0.0804 -0.6328 -0.4798
 4984SOL    HW116372   6.045   2.239   5.357 -0.8820 -0.8869 -0.4372
 4984SOL    HW216373   6.153   2.135   5.340 -0.0703 -0.1995  0.3453
 4985SOL     OW16374   0.445   2.721   7.774  0.0520  0.2832  0.1354
 4985SOL    HW116375   0.520   2.752   7.723  1.3520 -1.4229  0.9092
 4985SOL    HW216376   0.465   2.745   7.864 -1.7748  2.4228  0.0459
 4986SOL     OW16377   0.124   3.480   6.072 -0.3565  0.0906  0.4236
 4986SOL    HW116378   0.191   3.518   6.129 -1.6960  1.9817  0.8015
 4986SOL    HW216379   0.171   3.456   5.992  0.8317  1.0783  0.8053
 4987SOL     OW16380   5.334   1.326   4.816 -0.4486 -0.2456  0.0047
 4987SOL    HW116381   5.365   1.411   4.782 -1.8346  0.1996 -0.2303
 4987SOL    HW216382   5.262   1.302   4.757  0.6657 -2.1903 -0.6551
 4988SOL     OW16383   3.814   1.964   6.885  0.8712  0.6715  0.7831
 4988SOL    HW116384   3.878   1.957   6.814 -1.7750  0.1141 -1.7544
 4988SOL    HW216385   3.784   2.055   6.881  0.0274  0.3913  0.4873
 4989SOL     OW16386   1.706   6.650   4.776  0.4424  0.1654  0.6306
 4989SOL    HW116387   1.801   6.660   4.780  0.4683  0.4664 -0.3477
 4989SOL    HW216388   1.683   6.607   4.858  1.6182 -1.3593  0.2153
 4990SOL     OW16389   7.165   6.992   3.238  0.1739 -0.3122  0.1279
 4990SOL    HW116390   7.211   7.055   3.293 -0.0755  0.1422 -0.1772
 4990SOL    HW216391   7.119   6.936   3.300  0.3006 -0.1205  0.3983
 4991SOL     OW16392   3.280   3.192   4.987  0.2815  0.6769 -0.0783
 4991SOL    HW116393   3.339   3.133   5.034  1.9857  0.9558 -1.7665
 4991SOL    HW216394   3.335   3.267   4.963 -0.7716  0.9819 -1.6721
 4992SOL     OW16395   2.364   3.482   3.787 -0.4730 -0.0642 -0.0911
 4992SOL    HW116396   2.456   3.505   3.777 -0.8238  1.5788  0.1811
 4992SOL    HW216397   2.353   3.469   3.881 -0.2242 -1.7198 -0.2624
 4993SOL     OW16398   4.630   1.241   4.697  0.6970 -0.0086 -0.1265
 4993SOL    HW116399   4.636   1.313   4.635 -1.2787 -1.1230 -1.7421
 4993SOL    HW216400   4.694   1.177   4.666  1.4479  0.4302  0.4771
 4994SOL     OW16401   4.460   6.404   5.823 -0.2303  0.6088  0.4432
 4994SOL    HW116402   4.459   6.309   5.839  0.5066  0.6917  1.0533
 4994SOL    HW216403   4.441   6.413   5.730  0.5997 -0.1908  0.1790
 4995SOL     OW16404   6.401   6.740   6.017  0.5909 -0.0084  0.3105
 4995SOL    HW116405   6.332   6.797   6.051  0.9504  1.4133 -1.1924
 4995SOL    HW216406   6.354   6.677   5.961  0.4290  0.3845  0.0043
 4996SOL     OW16407   4.754   2.816   0.482  0.6655  0.5870 -0.3210
 4996SOL    HW116408   4.814   2.841   0.411 -0.0590  0.5288 -0.9641
 4996SOL    HW216409   4.681   2.878   0.474  0.2448  0.1215 -0.0749
 4997SOL     OW16410   0.454   5.727   1.021  0.7281 -0.0341 -0.0303
 4997SOL    HW116411   0.516   5.761   0.957  0.5303 -1.5043 -1.0671
 4997SOL    HW216412   0.368   5.758   0.990  0.7306  0.0795  0.0788
 4998SOL     OW16413   5.645   0.159   4.867  0.3364 -0.1783 -0.1255
 4998SOL    HW116414   5.711   0.124   4.928  0.2852  0.4998  0.3218
 4998SOL    HW216415   5.562   0.123   4.899  0.4473 -0.8268 -0.5388
 4999SOL     OW16416   6.716   6.997   2.761  0.7822  0.0602 -0.2499
 4999SOL    HW116417   6.725   6.964   2.672 -0.2473  1.0230 -0.7428
 4999SOL    HW216418   6.799   6.975   2.804  0.5728 -2.0685 -0.8693
 5000SOL     OW16419   6.440   7.706   1.440 -0.0391 -0.3179 -0.0172
 5000SOL    HW116420   6.420   7.689   1.348 -0.9560  0.2275  0.0699
 5000SOL    HW216421   6.368   7.762   1.470 -0.3693 -1.4049  1.3273
 5001SOL     OW16422   2.137   2.881   4.143 -0.5075 -0.6876 -0.2092
 5001SOL    HW116423   2.178   2.821   4.080 -1.5730 -2.0466  0.3203
 5001SOL    HW216424   2.169   2.852   4.228  0.5054  0.8006 -0.0528
 5002SOL     OW16425   3.455   0.767   2.296  0.3294  0.0595  0.1826
 5002SOL    HW116426   3.405   0.727   2.367  1.9851 -0.0536  1.3335
 5002SOL    HW216427   3.429   0.859   2.298  1.1773  0.3180  1.7567
 5003SOL     OW16428   2.350   5.823   0.081  0.1847 -0.0703 -0.2546
 5003SOL    HW116429   2.323   5.908   0.119 -0.2705 -0.3357  0.0337
 5003SOL    HW216430   2.268   5.774   0.074  0.5082 -0.6568  0.0119
 5004SOL     OW16431   2.824   2.904   7.830 -0.2618  0.4225 -0.4316
 5004SOL    HW116432   2.828   2.868   7.919 -0.0525  0.5222 -0.4001
 5004SOL    HW216433   2.769   2.842   7.782  0.0240  0.1060 -0.3551
 5005SOL     OW16434   6.591   5.771   2.833 -0.0524 -0.3480  0.1397
 5005SOL    HW116435   6.653   5.827   2.786 -0.5695  2.3018  2.3153
 5005SOL    HW216436   6.515   5.765   2.775  0.7806 -0.4615 -0.9630
 5006SOL     OW16437   4.755   5.873   0.367 -0.6444 -0.4626 -0.2136
 5006SOL    HW116438   4.824   5.891   0.304  3.8020 -1.5426  3.7754
 5006SOL    HW216439   4.722   5.786   0.344  2.9611 -2.1627  0.3449
 5007SOL     OW16440   0.766   2.794   3.153  0.6458 -0.0688 -0.0786
 5007SOL    HW116441   0.860   2.779   3.167  0.6826  0.1332 -0.1101
 5007SOL    HW216442   0.732   2.816   3.239  0.3200 -1.7613  0.2495
 5008SOL     OW16443   1.850   3.022   7.758  0.0659  0.5289 -0.2535
 5008SOL    HW116444   1.847   3.116   7.778 -0.9189  0.8812 -1.8452
 5008SOL    HW216445   1.827   2.979   7.840 -0.9464  1.7482  0.1398
 5009SOL     OW16446   3.720   3.134   7.862  0.0903 -0.0672 -0.1898
 5009SOL    HW116447   3.812   3.108   7.865  0.1310  0.0629 -0.3151
 5009SOL    HW216448   3.721   3.228   7.879 -0.0801 -0.1926  0.5561
 5010SOL     OW16449   7.341   3.647   3.457 -0.6454  0.0619  0.1525
 5010SOL    HW116450   7.314   3.561   3.424 -0.4315 -0.4694  1.2989
 5010SOL    HW216451   7.406   3.678   3.394 -1.2048 -0.3084 -0.6281
 5011SOL     OW16452   3.549   6.964   3.661 -0.2900  0.4586  0.7831
 5011SOL    HW116453   3.612   6.933   3.596 -0.8091  0.4551  0.2797
 5011SOL    HW216454   3.524   7.051   3.631 -1.2911  0.0623  0.4102
 5012SOL     OW16455   5.428   6.982   4.532 -0.8361 -0.1918 -0.5550
 5012SOL    HW116456   5.415   7.052   4.596 -0.2809 -1.4963  1.0410
 5012SOL    HW216457   5.344   6.976   4.486 -0.4236  2.5669 -1.9018
 5013SOL     OW16458   0.588   1.979   6.535  0.1891 -0.0425  0.2822
 5013SOL    HW116459   0.636   2.020   6.607 -1.5729 -0.3865  1.7128
 5013SOL    HW216460   0.636   1.898   6.517  1.8907  1.0752 -0.4513
 5014SOL     OW16461   1.209   1.339   6.851  0.5565 -0.4117  0.5779
 5014SOL    HW116462   1.272   1.370   6.915 -0.3435  0.8237  0.9001
 5014SOL    HW216463   1.179   1.255   6.886  1.3576 -0.5860  0.8624
 5015SOL     OW16464   3.826   6.533   5.793  0.1012 -0.3118 -0.1692
 5015SOL    HW116465   3.781   6.516   5.711 -0.8234 -0.9040  0.4385
 5015SOL    HW216466   3.904   6.582   5.768 -0.7818  0.5920 -1.2746
 5016SOL     OW16467   5.584   7.613   7.568 -0.4037 -0.2969  0.8329
 5016SOL    HW116468   5.517   7.649   7.509  1.9860  1.6808 -0.8671
 5016SOL    HW216469   5.534   7.565   7.634 -3.3751 -0.5222 -1.3718
 5017SOL     OW16470   1.934   5.457   4.360  0.5226 -0.1343 -0.4498
 5017SOL    HW116471   1.969   5.369   4.349 -1.4017 -1.0959  0.5972
 5017SOL    HW216472   2.000   5.514   4.322  0.2763 -2.2035 -4.4883
 5018SOL     OW16473   6.420   0.953   6.943  0.6873 -0.2730 -0.3020
 5018SOL    HW116474   6.458   0.865   6.945 -0.0246 -0.6164 -1.2277
 5018SOL    HW216475   6.341   0.946   6.997  0.8067 -0.1128 -0.1063
 5019SOL     OW16476   6.366   0.281   5.753  0.1188  0.4693  0.0464
 5019SOL    HW116477   6.343   0.353   5.813  0.6894 -0.0126  0.8647
 5019SOL    HW216478   6.321   0.205   5.789 -1.2069  0.5631 -1.3245
 5020SOL     OW16479   5.704   3.320   4.559  0.1530  0.1520  0.3823
 5020SOL    HW116480   5.654   3.401   4.553 -1.0374 -0.5571  0.3664
 5020SOL    HW216481   5.641   3.255   4.590  0.5060 -1.2414 -1.5926
 5021SOL     OW16482   3.660   1.504   4.857  0.1059 -0.7308 -0.6298
 5021SOL    HW116483   3.629   1.551   4.934  0.3623 -0.7409 -0.5182
 5021SOL    HW216484   3.746   1.541   4.839 -0.2618 -0.2101 -1.3613
 5022SOL     OW16485   2.053   5.437   2.241 -0.6907  0.4807  0.3797
 5022SOL    HW116486   1.996   5.393   2.304 -0.1839  0.5893  0.9217
 5022SOL    HW216487   1.994   5.492   2.190 -1.0207  0.9272  1.2211
 5023SOL     OW16488   0.110   4.618   7.053 -0.5478  0.2486  0.0875
 5023SOL    HW116489   0.206   4.618   7.061 -0.4401 -1.8164 -0.4239
 5023SOL    HW216490   0.085   4.709   7.064  1.5857  1.0374 -0.9845
 5024SOL     OW16491   6.130   3.114   1.611 -0.4822  0.1291  0.0871
 5024SOL    HW116492   6.184   3.043   1.578 -1.9415 -0.9188 -0.1746
 5024SOL    HW216493   6.132   3.180   1.541 -2.6666 -1.5975 -1.7801
 5025SOL     OW16494   5.406   5.941   7.495  0.7985 -0.6169  0.4632
 5025SOL    HW116495   5.368   5.991   7.568 -0.3055 -0.5711 -0.1185
 5025SOL    HW216496   5.368   5.854   7.503  0.4948 -0.5518 -0.1762
 5026SOL     OW16497   0.036   6.770   7.086  0.5025 -0.0181  0.1138
 5026SOL    HW116498  -0.046   6.770   7.135  0.7423  0.0317  0.5195
 5026SOL    HW216499   0.088   6.840   7.126  0.8563 -0.2432  0.0583
 5027SOL     OW16500   0.707   3.730   6.066  0.3401 -0.5147  0.0891
 5027SOL    HW116501   0.635   3.789   6.045  0.4329 -0.3889  0.1275
 5027SOL    HW216502   0.777   3.755   6.006  0.5502 -0.2615  0.4392
 5028SOL     OW16503   5.775   6.174   6.150 -0.0195 -0.1180 -0.4500
 5028SOL    HW116504   5.770   6.087   6.190 -0.6386 -0.0486 -0.3641
 5028SOL    HW216505   5.868   6.197   6.154  0.0151 -0.3822  0.3712
 5029SOL     OW16506   5.874   0.252   6.680  0.5036  0.2206 -0.0824
 5029SOL    HW116507   5.897   0.164   6.650  1.3385  0.5625 -0.4739
 5029SOL    HW216508   5.896   0.252   6.773  0.9593  0.1640 -0.1877
 5030SOL     OW16509   2.136   2.185   6.579  0.3090  0.1955  0.1923
 5030SOL    HW116510   2.223   2.224   6.591 -0.2599  1.5346  0.1622
 5030SOL    HW216511   2.123   2.184   6.484  0.3570 -0.1628  0.1883
 5031SOL     OW16512   7.503   2.558   5.888  0.6696 -0.0008 -0.0600
 5031SOL    HW116513   7.584   2.578   5.840  0.4286 -0.4396 -0.6737
 5031SOL    HW216514   7.510   2.464   5.908  0.6586  0.1302  0.5558
 5032SOL     OW16515   5.322   1.405   5.714  0.5521 -0.0982  0.2525
 5032SOL    HW116516   5.305   1.340   5.783 -0.0437 -1.0116 -0.7232
 5032SOL    HW216517   5.248   1.465   5.721  1.0996  0.4984  1.1536
 5033SOL     OW16518   2.859   2.740   7.122 -0.3467  0.0325 -0.1821
 5033SOL    HW116519   2.865   2.785   7.037  0.0915 -1.4661 -0.9879
 5033SOL    HW216520   2.773   2.699   7.121 -0.4630  0.2570  0.2463
 5034SOL     OW16521   5.364   5.482   1.580 -0.2932  0.2061 -0.0243
 5034SOL    HW116522   5.325   5.396   1.564 -0.7935 -0.0115  2.1383
 5034SOL    HW216523   5.420   5.469   1.657 -1.3079  2.0638  1.0917
 5035SOL     OW16524   7.604   2.162   2.306 -0.0297  0.4217 -0.7692
 5035SOL    HW116525   7.534   2.184   2.367  0.1595  2.2699 -1.1677
 5035SOL    HW216526   7.563   2.101   2.245 -0.4012 -0.9588  0.7780
 5036SOL     OW16527   4.476   2.570   5.432  0.2722  0.0441 -0.0305
 5036SOL    HW116528   4.536   2.537   5.499  0.1553 -0.3868 -0.1336
 5036SOL    HW216529   4.426   2.493   5.405 -1.9021  0.7290  1.6418
 5037SOL     OW16530   5.602   2.124   0.476 -0.1024 -0.1560  0.4826
 5037SOL    HW116531   5.516   2.084   0.490 -0.6392 -0.0240 -1.9490
 5037SOL    HW216532   5.587   2.188   0.406  2.0706 -0.5549 -0.4255
 5038SOL     OW16533   3.547   3.405   1.212  0.0738 -0.3775 -0.1431
 5038SOL    HW116534   3.536   3.376   1.303  0.7294 -0.7327 -0.1711
 5038SOL    HW216535   3.489   3.481   1.204  0.7306  0.2604  0.8641
 5039SOL     OW16536   0.732   6.993   1.600 -1.0684 -0.2235  0.1077
 5039SOL    HW116537   0.696   6.911   1.636 -1.5577 -0.6955 -1.3999
 5039SOL    HW216538   0.669   7.060   1.626 -1.3782 -0.5447  0.1961
 5040SOL     OW16539   2.394   5.251   3.640  0.1672 -0.4551  0.4508
 5040SOL    HW116540   2.382   5.253   3.735  0.5518  1.5408  0.5028
 5040SOL    HW216541   2.384   5.343   3.613 -1.0687 -1.1202 -1.5924
 5041SOL     OW16542   6.359   0.089   1.156 -0.2916  0.0794  0.0313
 5041SOL    HW116543   6.369  -0.006   1.148  2.9785  0.3033 -0.0217
 5041SOL    HW216544   6.298   0.113   1.087  2.4599 -1.5553 -3.2472
 5042SOL     OW16545   7.280   2.731   7.450  0.0824  0.0582 -0.2362
 5042SOL    HW116546   7.291   2.778   7.533  0.4015  1.1374 -0.8687
 5042SOL    HW216547   7.369   2.724   7.415 -0.0070 -0.7252 -0.3200
 5043SOL     OW16548   2.846   4.666   4.426  0.7080  0.4464 -0.1017
 5043SOL    HW116549   2.818   4.726   4.496 -2.0913 -2.1470  1.2133
 5043SOL    HW216550   2.781   4.678   4.357  1.9521  1.0936 -1.2078
 5044SOL     OW16551   0.218   5.864   4.067 -0.2885  0.1047 -0.2057
 5044SOL    HW116552   0.199   5.789   4.010  1.0410  0.8183 -1.6426
 5044SOL    HW216553   0.263   5.926   4.011 -0.0124  1.3636  1.3504
 5045SOL     OW16554   2.936   7.312   2.551  0.3978 -0.1020 -0.3098
 5045SOL    HW116555   2.904   7.401   2.535  0.0693  0.0040  0.8297
 5045SOL    HW216556   2.868   7.271   2.604 -0.0206 -1.4500 -1.8340
 5046SOL     OW16557   0.997   3.708   0.837  0.5246 -0.4780  0.5151
 5046SOL    HW116558   1.041   3.631   0.801  0.5374 -0.1066 -0.2985
 5046SOL    HW216559   0.906   3.680   0.850  0.4800 -0.5797  0.0215
 5047SOL     OW16560   1.271   6.281   5.735  0.0862 -0.3833 -0.0951
 5047SOL    HW116561   1.191   6.228   5.745 -0.4210  0.5102  0.6976
 5047SOL    HW216562   1.239   6.366   5.707  1.0334 -0.9815 -3.3204
 5048SOL     OW16563   7.017   5.882   7.363 -0.2548  0.3326  0.1960
 5048SOL    HW116564   7.048   5.852   7.278 -0.2286 -0.3871  0.4545
 5048SOL    HW216565   6.961   5.812   7.394 -2.2463  1.6171 -0.2875
 5049SOL     OW16566   5.283   6.087   3.061  0.2227 -0.3346  0.8539
 5049SOL    HW116567   5.282   6.000   3.020  1.1803  0.3524 -0.7239
 5049SOL    HW216568   5.376   6.105   3.075 -0.0362 -0.0960  2.4182
 5050SOL     OW16569   6.277   2.419   5.226 -0.2053 -0.2997  0.1994
 5050SOL    HW116570   6.214   2.486   5.202 -0.1549 -0.8150 -1.5190
 5050SOL    HW216571   6.301   2.439   5.317 -1.1759  1.1906  0.1540
 5051SOL     OW16572   7.766   2.352   6.395  0.1384 -0.0633  0.0714
 5051SOL    HW116573   7.853   2.367   6.432 -0.2614  1.0505  0.6060
 5051SOL    HW216574   7.744   2.263   6.422  0.2663  0.3665  1.7607
 5052SOL     OW16575   1.995   2.571   0.163  0.1095  0.0541 -0.4257
 5052SOL    HW116576   2.073   2.621   0.141 -0.4660  1.1872  0.0481
 5052SOL    HW216577   2.024   2.480   0.161  1.9547  0.5156  1.6100
 5053SOL     OW16578   6.990   3.744   4.997  0.1114  1.0452 -0.4661
 5053SOL    HW116579   6.942   3.779   4.922  1.6999 -0.3276 -2.2340
 5053SOL    HW216580   7.075   3.786   4.993  0.9586 -0.5971 -0.7832
 5054SOL     OW16581   1.006   0.708   7.028  0.1545  0.4969 -0.0060
 5054SOL    HW116582   0.930   0.656   7.003 -0.4820  1.1879  0.4540
 5054SOL    HW216583   1.081   0.660   6.992 -0.5572  0.3190 -1.3081
 5055SOL     OW16584   2.285   2.303   5.981  0.5655 -0.3450 -0.3564
 5055SOL    HW116585   2.193   2.320   5.960  0.7799 -0.6323 -1.6004
 5055SOL    HW216586   2.331   2.384   5.958  0.8567 -0.7919 -1.4116
 5056SOL     OW16587   2.822   5.532   2.273 -0.0582  0.0666  0.0507
 5056SOL    HW116588   2.911   5.497   2.278 -1.0032 -2.4712  0.3919
 5056SOL    HW216589   2.791   5.533   2.363 -1.2108 -1.5574 -0.2745
 5057SOL     OW16590   2.267   6.259   4.818  0.1497  0.1268 -0.2368
 5057SOL    HW116591   2.249   6.352   4.833  0.6871  0.3931 -1.1474
 5057SOL    HW216592   2.362   6.253   4.813  0.1772 -0.6656  0.9002
 5058SOL     OW16593   5.846   0.751   5.639 -0.1976  0.4341  0.6519
 5058SOL    HW116594   5.922   0.724   5.587  2.8950  2.6123  3.5969
 5058SOL    HW216595   5.823   0.673   5.690 -1.3036 -0.8010 -1.5746
 5059SOL     OW16596   5.979   2.277   5.065  0.2782  0.3440  0.7188
 5059SOL    HW116597   5.966   2.242   4.977 -0.9716  2.3707  0.0226
 5059SOL    HW216598   5.967   2.202   5.123 -1.2261 -0.5868 -0.7163
 5060SOL     OW16599   2.868   7.400   3.287  0.3913 -0.6818 -0.2583
 5060SOL    HW116600   2.945   7.405   3.343  0.0368  0.0931  0.1762
 5060SOL    HW216601   2.899   7.434   3.202  0.6104 -0.6795 -0.1787
 5061SOL     OW16602   5.860   6.981   2.321 -0.4790  0.1060 -0.1647
 5061SOL    HW116603   5.896   6.953   2.405 -0.9628 -0.7951 -0.2507
 5061SOL    HW216604   5.823   6.902   2.283  0.5373  0.3028 -1.6401
 5062SOL     OW16605   4.669   0.169   6.095 -0.5583  0.0586 -0.2964
 5062SOL    HW116606   4.726   0.139   6.165 -0.3555 -0.4440 -0.6709
 5062SOL    HW216607   4.600   0.103   6.090  0.1713 -0.6534 -1.4625
 5063SOL     OW16608   7.795   7.359   5.955 -0.0482 -0.1172  0.2596
 5063SOL    HW116609   7.808   7.454   5.950  0.5311 -0.0583  2.2325
 5063SOL    HW216610   7.704   7.348   5.981 -0.1280 -0.1150 -0.0133
 5064SOL     OW16611   7.983   1.449   5.679 -0.1821  0.0156 -0.1622
 5064SOL    HW116612   7.939   1.406   5.606  1.1411 -0.3438 -0.7675
 5064SOL    HW216613   8.023   1.527   5.640 -0.0421  0.1898  0.3219
 5065SOL     OW16614   5.172   0.736   6.534  0.2901 -0.0602 -0.1168
 5065SOL    HW116615   5.176   0.651   6.578  0.8737 -0.2612 -0.5596
 5065SOL    HW216616   5.128   0.793   6.598  1.2636 -0.3033  0.7911
 5066SOL     OW16617   3.648   7.922   7.013 -0.1891  0.0535 -0.0826
 5066SOL    HW116618   3.580   7.982   6.982  0.4346  0.4992 -0.6142
 5066SOL    HW216619   3.616   7.835   6.992  0.0922  0.3319 -1.7609
 5067SOL     OW16620   0.691   0.618   2.931 -0.4922  0.5212  0.2178
 5067SOL    HW116621   0.693   0.708   2.962  0.2343  0.2090  1.1078
 5067SOL    HW216622   0.619   0.616   2.868 -0.8366  1.5932  0.5608
 5068SOL     OW16623   3.163   0.455   2.292  0.3539 -0.6746 -0.3659
 5068SOL    HW116624   3.226   0.466   2.221  0.9541 -0.5919  0.1700
 5068SOL    HW216625   3.186   0.522   2.356 -1.2063  0.3176 -0.8017
 5069SOL     OW16626   6.073   1.034   2.042  0.1966 -0.5526 -0.0201
 5069SOL    HW116627   6.105   1.082   2.118  0.8532 -1.5049  0.3234
 5069SOL    HW216628   5.981   1.017   2.060 -0.0914  0.7171 -0.2291
 5070SOL     OW16629   3.262   4.570   1.789 -0.0375  0.2656  0.4063
 5070SOL    HW116630   3.199   4.635   1.822 -1.2662 -1.8131  2.4698
 5070SOL    HW216631   3.207   4.499   1.756  1.2124 -0.8653  0.6737
 5071SOL     OW16632   0.612   1.218   4.822 -0.0885 -0.3183 -0.0574
 5071SOL    HW116633   0.686   1.165   4.791  0.5410  0.6628 -0.2862
 5071SOL    HW216634   0.649   1.306   4.832 -1.2650  0.2144 -0.2979
 5072SOL     OW16635   1.907   6.971   2.999  0.2136  0.0415  0.1641
 5072SOL    HW116636   1.813   6.984   3.011  0.1804  0.0902 -0.1321
 5072SOL    HW216637   1.940   7.057   2.972  0.3824  0.0820  0.5029
 5073SOL     OW16638   6.808   6.329   0.428  0.6951  0.3230 -0.3210
 5073SOL    HW116639   6.845   6.319   0.340 -0.5812  1.2372 -0.9846
 5073SOL    HW216640   6.851   6.406   0.464  0.1735  0.8081 -0.7174
 5074SOL     OW16641   1.235   1.017   0.826 -0.0081 -0.1106 -0.3094
 5074SOL    HW116642   1.323   0.980   0.838 -0.5770 -1.2969  0.3749
 5074SOL    HW216643   1.188   0.952   0.774 -0.5267  0.4400 -0.5344
 5075SOL     OW16644   4.702   0.641   7.954 -0.1668 -0.3263 -0.1859
 5075SOL    HW116645   4.795   0.629   7.974  0.6865 -0.3881 -3.5840
 5075SOL    HW216646   4.678   0.722   7.999  1.2412 -0.7729  1.4788
 5076SOL     OW16647   2.867   3.103   6.225 -0.2011 -0.1187 -0.5531
 5076SOL    HW116648   2.892   3.177   6.280  1.2807 -0.6285 -0.5055
 5076SOL    HW216649   2.787   3.069   6.266 -0.8727  1.3843 -0.5381
 5077SOL     OW16650   0.320   3.770   7.631  0.2258  0.2654  0.4817
 5077SOL    HW116651   0.249   3.833   7.620 -0.7642 -1.0268 -0.9403
 5077SOL    HW216652   0.307   3.736   7.720  0.2110  1.3689  0.9163
 5078SOL     OW16653   2.326   6.032   4.551 -0.7243  0.1256 -0.3091
 5078SOL    HW116654   2.363   6.120   4.550  1.1845 -0.6275  0.1439
 5078SOL    HW216655   2.234   6.045   4.575 -0.1399  1.8890  1.2583
 5079SOL     OW16656   4.339   6.327   7.502  0.0060 -0.0602  0.3857
 5079SOL    HW116657   4.332   6.410   7.454 -1.4504  0.2384  1.0632
 5079SOL    HW216658   4.263   6.326   7.560  0.1332 -1.7739  0.5714
 5080SOL     OW16659   5.980   4.625   1.499 -0.4881 -0.4686  0.4615
 5080SOL    HW116660   5.930   4.580   1.431 -0.9094 -0.6617  0.8898
 5080SOL    HW216661   5.926   4.701   1.521  0.0578  0.0712 -0.0190
 5081SOL     OW16662   7.288   3.999   6.011 -0.1833 -0.0447  0.0322
 5081SOL    HW116663   7.211   4.053   6.031  1.1801  1.7353  0.7023
 5081SOL    HW216664   7.343   4.054   5.956  0.5048 -1.4090 -0.6977
 5082SOL     OW16665   1.541   6.315   5.693 -0.0467  0.7017 -0.0301
 5082SOL    HW116666   1.552   6.368   5.614 -2.5998 -0.2856 -1.1373
 5082SOL    HW216667   1.447   6.303   5.702  0.2779 -4.0557 -0.2174
 5083SOL     OW16668   1.339   1.416   2.245  0.4700 -0.0000 -0.0326
 5083SOL    HW116669   1.379   1.451   2.325  0.7807  1.6924 -0.8872
 5083SOL    HW216670   1.398   1.444   2.175  0.9632 -2.6398 -0.7922
 5084SOL     OW16671   0.846   1.261   0.012 -0.0341  0.4929 -0.3855
 5084SOL    HW116672   0.897   1.300   0.083 -0.8767  1.9405 -0.5329
 5084SOL    HW216673   0.815   1.336  -0.039 -1.8793 -0.3544 -0.5775
 5085SOL     OW16674   6.172   3.056   3.461 -0.8357 -0.1558  0.4655
 5085SOL    HW116675   6.124   2.991   3.512 -0.1387  1.7944  3.8890
 5085SOL    HW216676   6.105   3.109   3.419 -1.4548 -1.0982  0.2243
 5086SOL     OW16677   2.655   0.763   0.718 -0.1801 -0.0859  0.3079
 5086SOL    HW116678   2.689   0.798   0.635 -2.0752  0.4360 -0.3004
 5086SOL    HW216679   2.665   0.835   0.780  1.2266 -0.4709  0.5722
 5087SOL     OW16680   2.074   2.710   0.709 -0.2933 -0.1444  0.1503
 5087SOL    HW116681   2.144   2.761   0.669  1.2179  0.0053  2.7915
 5087SOL    HW216682   2.107   2.620   0.708 -1.8143 -0.7893 -2.0505
 5088SOL     OW16683   2.853   5.312   3.173  0.8064 -0.1991 -0.4161
 5088SOL    HW116684   2.854   5.287   3.080  0.4136 -0.3129 -0.3905
 5088SOL    HW216685   2.789   5.383   3.177  0.9290 -0.0962 -0.2517
 5089SOL     OW16686   4.416   2.519   0.570 -0.2385  0.1625 -0.5810
 5089SOL    HW116687   4.510   2.538   0.573 -0.3835  1.0974 -1.5478
 5089SOL    HW216688   4.412   2.423   0.572  0.7040  0.1193 -0.0091
 5090SOL     OW16689   6.915   7.882   1.013  0.2440  0.6267  0.1950
 5090SOL    HW116690   6.905   7.844   0.925  0.0455 -0.0198  0.4879
 5090SOL    HW216691   7.000   7.851   1.043  1.2883  2.5844 -0.5857
 5091SOL     OW16692   4.418   5.772   3.468  0.6909  0.0601  0.2421
 5091SOL    HW116693   4.441   5.846   3.412  0.2161 -0.6917 -0.9823
 5091SOL    HW216694   4.391   5.703   3.407  1.1809 -1.1485  1.3533
 5092SOL     OW16695   7.885   2.021   4.789  0.3353  0.6237  0.7737
 5092SOL    HW116696   7.925   2.078   4.854  2.4427 -0.6611  0.6888
 5092SOL    HW216697   7.935   1.940   4.794  0.6835  0.4873 -2.5179
 5093SOL     OW16698   0.939   0.629   7.502 -0.4784  0.0354 -0.4557
 5093SOL    HW116699   0.967   0.613   7.412 -0.7115  0.8275 -0.6817
 5093SOL    HW216700   0.900   0.717   7.500  0.9818  0.7604  0.7545
 5094SOL     OW16701   5.555   5.310   6.884  0.8001 -0.8380  0.0186
 5094SOL    HW116702   5.460   5.318   6.890  0.5647 -1.2362 -2.3204
 5094SOL    HW216703   5.584   5.298   6.975 -1.2394  0.4816  0.9166
 5095SOL     OW16704   5.972   7.628   0.945 -0.3747 -0.0628 -0.5854
 5095SOL    HW116705   6.034   7.699   0.960 -0.6456  0.4324 -1.6537
 5095SOL    HW216706   6.020   7.549   0.967 -0.4263  0.4831  1.7353
 5096SOL     OW16707   1.264   1.540   4.705  0.4859  0.5730 -0.1996
 5096SOL    HW116708   1.172   1.565   4.707 -0.1270 -1.4210 -0.7394
 5096SOL    HW216709   1.288   1.527   4.796  0.3111  1.2794 -0.0456
 5097SOL     OW16710   7.196   4.244   0.932  0.0815 -0.4511 -0.2401
 5097SOL    HW116711   7.270   4.265   0.875 -0.9372 -0.0629 -1.4716
 5097SOL    HW216712   7.216   4.156   0.965  1.7073  0.1698  0.5105
 5098SOL     OW16713   0.188   2.001   1.237 -0.5993 -0.1055 -0.4625
 5098SOL    HW116714   0.197   2.083   1.188  0.4339  1.6976  2.4927
 5098SOL    HW216715   0.277   1.973   1.254 -0.9309 -0.9605 -0.0586
 5099SOL     OW16716   7.400   1.393   3.093 -0.4347 -0.0288  0.1247
 5099SOL    HW116717   7.411   1.390   2.998 -0.9659 -0.7872  0.0734
 5099SOL    HW216718   7.357   1.477   3.110  0.1109  0.3354 -0.2442
 5100SOL     OW16719   4.585   2.947   0.743 -0.6135 -0.6104  0.1504
 5100SOL    HW116720   4.619   3.020   0.692 -0.2286 -0.8776  0.0227
 5100SOL    HW216721   4.492   2.943   0.720 -0.2952 -1.2048 -1.1229
 5101SOL     OW16722   5.516   0.949   6.833 -0.0683  0.7689 -0.2203
 5101SOL    HW116723   5.603   0.909   6.824 -0.2027  0.9102 -2.7856
 5101SOL    HW216724   5.533   1.033   6.874  0.7579  0.0506  0.9886
 5102SOL     OW16725   3.910   1.624   1.553  0.2165 -0.8194 -0.2273
 5102SOL    HW116726   3.950   1.609   1.639  0.8467 -2.4776 -0.7740
 5102SOL    HW216727   3.828   1.575   1.555 -0.4756  0.3009 -0.0993
 5103SOL     OW16728   4.934   1.786   5.813  0.0871 -0.0576 -0.0910
 5103SOL    HW116729   4.982   1.860   5.850  0.2458 -0.2767  0.1429
 5103SOL    HW216730   4.871   1.762   5.882  1.6503 -1.6838  0.8407
 5104SOL     OW16731   7.530   4.535   6.921  0.6120 -0.3750 -0.1737
 5104SOL    HW116732   7.595   4.558   6.988  1.0949  1.3243 -1.1635
 5104SOL    HW216733   7.572   4.557   6.838 -0.9178  0.0252 -0.8828
 5105SOL     OW16734   5.777   7.839   6.336 -0.3954  0.6971  0.1697
 5105SOL    HW116735   5.818   7.895   6.270 -0.0021 -0.0423 -0.2273
 5105SOL    HW216736   5.844   7.774   6.358 -1.2576 -0.3910 -0.3212
 5106SOL     OW16737   5.094   0.899   3.290  0.0251 -0.3213 -0.4281
 5106SOL    HW116738   5.110   0.907   3.196 -0.3330 -2.4328 -0.7218
 5106SOL    HW216739   5.000   0.880   3.297 -0.3035  1.4327  0.5077
 5107SOL     OW16740   1.208   2.582   7.244 -0.3645  0.4810 -0.5230
 5107SOL    HW116741   1.129   2.528   7.237 -0.6389  1.0465 -2.0895
 5107SOL    HW216742   1.244   2.560   7.330 -0.9414 -1.5178 -0.7452
 5108SOL     OW16743   0.000   0.644   6.411  0.1010  0.8047  0.0294
 5108SOL    HW116744  -0.090   0.615   6.396  0.5880 -0.3073 -0.9077
 5108SOL    HW216745   0.050   0.563   6.424  1.0124  1.3842  0.2480
 5109SOL     OW16746   4.304   5.071   0.666 -0.2352 -0.0381 -0.1659
 5109SOL    HW116747   4.209   5.065   0.668 -0.1571 -1.0839  1.0193
 5109SOL    HW216748   4.330   5.085   0.757  0.6373  2.7015 -0.7396
 5110SOL     OW16749   5.155   7.861   0.963  0.0864 -0.3497 -0.0272
 5110SOL    HW116750   5.210   7.937   0.945 -0.5076 -0.1439 -1.0511
 5110SOL    HW216751   5.215   7.797   1.001  1.4672 -0.7650 -2.6587
 5111SOL     OW16752   0.202   4.044   0.159 -0.1829  0.4310 -0.0092
 5111SOL    HW116753   0.163   3.979   0.100  0.1547 -1.3246  1.5975
 5111SOL    HW216754   0.289   4.060   0.123 -0.8909  1.3538 -1.3890
 5112SOL     OW16755   0.593   6.984   6.831  0.2050  0.2226  0.3195
 5112SOL    HW116756   0.628   7.048   6.893  0.0280  0.2517  0.3885
 5112SOL    HW216757   0.574   7.036   6.752  1.7254 -0.0339 -0.2605
 5113SOL     OW16758   7.084   6.163   7.437 -0.0028  0.5355  0.3024
 5113SOL    HW116759   7.066   6.199   7.350  0.0693 -0.1478 -0.0027
 5113SOL    HW216760   7.169   6.120   7.427 -0.2932 -0.1034  0.5345
 5114SOL     OW16761   6.891   1.002   7.267  0.2364 -0.4012 -0.3281
 5114SOL    HW116762   6.970   0.961   7.232  1.0656 -0.5467  1.5845
 5114SOL    HW216763   6.821   0.968   7.212  1.2214 -2.1842 -0.5761
 5115SOL     OW16764   4.567   6.215   1.482 -0.2479 -0.7752  0.4473
 5115SOL    HW116765   4.474   6.192   1.479 -0.6547  0.8914 -1.3693
 5115SOL    HW216766   4.577   6.285   1.419  2.0768 -0.1625  1.3820
 5116SOL     OW16767   1.843   8.005   1.194 -0.3421 -0.1460 -0.0157
 5116SOL    HW116768   1.921   7.954   1.215 -0.5727 -0.4781  0.0384
 5116SOL    HW216769   1.874   8.074   1.135  0.1044  0.1075  0.5101
 5117SOL     OW16770   0.560   5.168   5.989  0.2475  0.0141 -0.0804
 5117SOL    HW116771   0.483   5.158   5.932 -1.2646  2.0792  1.4540
 5117SOL    HW216772   0.535   5.125   6.071  0.8061  0.5439  0.3736
 5118SOL     OW16773   6.639   2.827   3.027  0.5714 -0.2105  0.0323
 5118SOL    HW116774   6.668   2.877   3.104  0.7729 -1.4109  0.7719
 5118SOL    HW216775   6.546   2.849   3.018  0.5564 -0.0210  0.5908
 5119SOL     OW16776   5.681   2.842   3.463 -0.1547  0.1646  0.1322
 5119SOL    HW116777   5.655   2.912   3.403  0.4769  0.0383 -0.2951
 5119SOL    HW216778   5.730   2.780   3.408  0.6585  0.1743  0.8276
 5120SOL     OW16779   3.399   0.378   7.040 -0.7439  0.0823  0.3190
 5120SOL    HW116780   3.379   0.328   7.119 -1.4238 -0.2998 -0.0858
 5120SOL    HW216781   3.411   0.468   7.070 -0.3281 -0.1746  0.9397
 5121SOL     OW16782   2.793   1.112   0.233 -0.1139 -0.3760  0.6983
 5121SOL    HW116783   2.781   1.186   0.172 -0.2219 -1.0129 -0.0704
 5121SOL    HW216784   2.837   1.045   0.181  0.7646 -0.5436  1.6378
 5122SOL     OW16785   5.641   0.150   4.108  0.2199 -0.2631  0.0490
 5122SOL    HW116786   5.598   0.180   4.188  0.4918 -1.2041  0.5651
 5122SOL    HW216787   5.644   0.055   4.117  0.2544 -0.3842 -1.0869
 5123SOL     OW16788   2.067   0.766   4.291 -0.4943 -0.0302  0.2694
 5123SOL    HW116789   2.132   0.836   4.290  0.2135 -0.6531 -1.2125
 5123SOL    HW216790   2.088   0.713   4.214  0.0226 -2.8198  2.1496
 5124SOL     OW16791   5.414   1.912   0.408  0.3052 -0.1670 -0.1178
 5124SOL    HW116792   5.350   1.943   0.473  0.0580  0.0865 -0.4841
 5124SOL    HW216793   5.366   1.911   0.325  0.5326 -0.7828 -0.2488
 5125SOL     OW16794   1.613   7.590   4.162  0.4121 -0.2316  0.0644
 5125SOL    HW116795   1.609   7.547   4.077 -3.4916 -0.0739  0.0070
 5125SOL    HW216796   1.584   7.523   4.224 -1.8095  1.0314  0.4966
 5126SOL     OW16797   5.720   0.226   3.082 -0.1636 -0.3338  0.0094
 5126SOL    HW116798   5.799   0.191   3.126  1.2343  0.6295 -1.6204
 5126SOL    HW216799   5.740   0.318   3.069 -0.3369 -0.6290 -2.9156
 5127SOL     OW16800   2.059   1.920   2.763  0.5199 -0.4162 -0.6392
 5127SOL    HW116801   2.018   1.849   2.812  0.1742  0.9839  1.2227
 5127SOL    HW216802   2.142   1.936   2.808  0.5562  0.3971 -0.9770
 5128SOL     OW16803   2.716   1.556   1.113 -0.2011  0.0641 -0.4296
 5128SOL    HW116804   2.794   1.612   1.109 -0.3349  0.2545 -0.3799
 5128SOL    HW216805   2.644   1.616   1.130 -0.4227 -0.0615 -0.9213
 5129SOL     OW16806   4.356   7.751   0.246  1.3188  1.1382  0.4520
 5129SOL    HW116807   4.314   7.703   0.175  0.2244  2.9446 -0.1841
 5129SOL    HW216808   4.291   7.816   0.274  1.2814 -0.1601  3.8714
 5130SOL     OW16809   7.668   3.526   5.758  0.2072 -0.2512 -0.0399
 5130SOL    HW116810   7.631   3.526   5.847 -0.0966  0.2167 -0.1657
 5130SOL    HW216811   7.761   3.512   5.771  0.0664 -0.9266  0.3141
 5131SOL     OW16812   5.199   7.158   7.771  0.3655 -0.0995 -0.5710
 5131SOL    HW116813   5.196   7.178   7.864  0.4001 -1.3297 -0.2972
 5131SOL    HW216814   5.196   7.244   7.728 -1.8081  0.4321  0.5121
 5132SOL     OW16815   3.740   0.831   0.941 -0.1910  0.3111  1.0800
 5132SOL    HW116816   3.720   0.919   0.909 -1.1065 -1.0496 -2.5557
 5132SOL    HW216817   3.667   0.809   0.998 -0.2396  1.6617  1.5712
 5133SOL     OW16818   7.174   5.494   6.913  0.0572  0.4385  0.1934
 5133SOL    HW116819   7.093   5.536   6.882 -0.0782  0.0568  0.0319
 5133SOL    HW216820   7.244   5.550   6.878 -0.0834 -0.1050 -1.0029
 5134SOL     OW16821   0.449   0.398   1.245 -0.5204  0.1544  0.4181
 5134SOL    HW116822   0.403   0.366   1.322  1.7373  0.5731  2.0335
 5134SOL    HW216823   0.525   0.446   1.280 -0.3679  1.9069 -2.0242
 5135SOL     OW16824   2.178   0.231   3.559  0.6740 -0.4113 -0.4078
 5135SOL    HW116825   2.141   0.296   3.500  1.6788  1.4668  0.9332
 5135SOL    HW216826   2.167   0.268   3.646  0.1584 -2.6408  0.5478
 5136SOL     OW16827   3.208   5.029   2.131  0.2343 -0.2332  0.0618
 5136SOL    HW116828   3.168   5.049   2.047  0.2199 -0.2048  0.0756
 5136SOL    HW216829   3.134   5.014   2.190  0.2334  0.9812  0.3773
 5137SOL     OW16830   7.899   7.361   2.407 -0.4678 -0.0902  0.0557
 5137SOL    HW116831   7.907   7.443   2.456  1.5979  0.8056 -1.6366
 5137SOL    HW216832   7.865   7.298   2.471 -1.6170  1.9306  1.5355
 5138SOL     OW16833   4.336   1.996   0.753  0.3976  0.3075 -0.0255
 5138SOL    HW116834   4.365   1.908   0.731 -0.0462  0.3195 -0.6860
 5138SOL    HW216835   4.379   2.052   0.689  0.2296  0.5094  0.0359
 5139SOL     OW16836   2.575   7.397   1.594 -0.4209  0.3185 -0.1305
 5139SOL    HW116837   2.482   7.409   1.575 -0.6225  2.4403  1.7295
 5139SOL    HW216838   2.616   7.480   1.569  0.2682  0.8984  2.5645
 5140SOL     OW16839   5.976   8.058   5.188  0.0379  0.0720  0.3725
 5140SOL    HW116840   6.013   8.135   5.231 -0.5965 -0.2626  1.5709
 5140SOL    HW216841   6.037   8.038   5.117  1.1978  0.5780  1.2023
 5141SOL     OW16842   6.065   4.669   0.848 -0.3346 -0.2771  0.3233
 5141SOL    HW116843   6.133   4.680   0.781  0.8390  1.8573  1.7509
 5141SOL    HW216844   6.098   4.601   0.906 -0.6463 -1.0511 -0.3847
 5142SOL     OW16845   1.348   3.690   7.441 -0.1950 -0.3767 -0.1904
 5142SOL    HW116846   1.351   3.775   7.487  0.0838 -1.0354  1.0646
 5142SOL    HW216847   1.259   3.659   7.454  0.1267 -0.9729  0.7206
 5143SOL     OW16848   2.479   4.364   3.355  0.1264  0.2704  0.4706
 5143SOL    HW116849   2.462   4.381   3.448  2.5572  0.4449  0.9377
 5143SOL    HW216850   2.549   4.299   3.355 -1.2019 -1.2610 -1.2870
 5144SOL     OW16851   2.800   6.189   4.762 -0.2430  0.4726  0.3807
 5144SOL    HW116852   2.853   6.111   4.750 -1.4804 -0.3576  0.0942
 5144SOL    HW216853   2.862   6.262   4.756  0.6303 -0.3583 -1.5221
 5145SOL     OW16854   1.013   0.241   3.736 -0.0513 -0.3473 -0.5423
 5145SOL    HW116855   1.080   0.233   3.803  1.4485  1.5518 -1.7111
 5145SOL    HW216856   1.059   0.222   3.654 -1.3472 -0.5891 -1.2461
 5146SOL     OW16857   2.782   0.932   8.059  0.3650  0.1855  0.5336
 5146SOL    HW116858   2.732   0.965   7.984  1.3406  2.1438  0.6997
 5146SOL    HW216859   2.872   0.926   8.028  0.5698 -0.2057  1.1765
 5147SOL     OW16860   2.139   0.430   7.350  0.2869  1.0211 -0.6538
 5147SOL    HW116861   2.182   0.512   7.374 -0.5301  0.7975  1.8370
 5147SOL    HW216862   2.078   0.454   7.281  1.2568  2.1597 -1.1471
 5148SOL     OW16863   0.733   2.485   7.778  0.1415 -0.3799  0.0074
 5148SOL    HW116864   0.807   2.426   7.790  0.8533 -0.0138 -2.1520
 5148SOL    HW216865   0.759   2.565   7.823  1.2885 -0.0939 -1.1171
 5149SOL     OW16866   4.259   7.412   2.418  0.3705 -0.0266  0.4472
 5149SOL    HW116867   4.264   7.344   2.486 -2.2691 -2.1311 -1.2477
 5149SOL    HW216868   4.333   7.394   2.361  0.7064 -0.3416  0.9750
 5150SOL     OW16869   0.435   5.096   5.214 -0.5072 -0.0332 -0.0757
 5150SOL    HW116870   0.464   5.124   5.301 -1.2748  0.8473 -0.0790
 5150SOL    HW216871   0.511   5.054   5.175 -0.5814 -1.8064  1.5722
 5151SOL     OW16872   5.901   7.259   5.084 -0.0523 -0.2260 -0.1210
 5151SOL    HW116873   5.828   7.227   5.136  0.3079  2.0483  1.9454
 5151SOL    HW216874   5.868   7.259   4.994 -1.5822 -1.8601  0.3821
 5152SOL     OW16875   6.227   1.308   6.489  0.0829  0.2058  0.2610
 5152SOL    HW116876   6.211   1.401   6.475  1.9859  0.3757 -1.1674
 5152SOL    HW216877   6.140   1.268   6.487 -0.5649  1.5442 -2.5075
 5153SOL     OW16878   5.848   2.120   0.149 -0.6109  0.2048 -0.6352
 5153SOL    HW116879   5.857   2.041   0.095 -2.2051 -1.1959  0.9984
 5153SOL    HW216880   5.756   2.119   0.177 -0.1982  1.6458  0.9119
 5154SOL     OW16881   4.837   3.813   5.943  0.8344 -0.1544  0.3106
 5154SOL    HW116882   4.889   3.883   5.903  1.7913 -0.3641  1.1299
 5154SOL    HW216883   4.801   3.853   6.022  0.8200 -0.3856  0.4217
 5155SOL     OW16884   6.494   5.178   6.380 -0.3755 -0.0110 -0.4750
 5155SOL    HW116885   6.461   5.107   6.434 -1.2037 -0.7109 -1.8545
 5155SOL    HW216886   6.494   5.254   6.439  0.3497 -1.0679  0.9687
 5156SOL     OW16887   7.817   4.977   2.175 -0.0532  0.1295  0.3375
 5156SOL    HW116888   7.739   4.921   2.171  0.8933 -1.2126  0.1220
 5156SOL    HW216889   7.867   4.952   2.097  0.5134  1.1120  0.3817
 5157SOL     OW16890   7.727   2.631   3.209  0.1676  0.0794  0.3404
 5157SOL    HW116891   7.759   2.598   3.124 -0.0233  1.7076 -0.3910
 5157SOL    HW216892   7.776   2.712   3.224 -0.3533  0.2105  1.4324
 5158SOL     OW16893   6.099   5.359   4.220  0.2472  0.3353 -0.1911
 5158SOL    HW116894   6.072   5.269   4.199 -0.7093  0.6574 -0.3688
 5158SOL    HW216895   6.054   5.413   4.155  0.1874  1.0151  0.4140
 5159SOL     OW16896   2.096   3.009   5.506 -0.0580 -0.1886 -0.4712
 5159SOL    HW116897   2.064   3.071   5.440 -0.3416 -1.5032 -1.6064
 5159SOL    HW216898   2.191   3.024   5.508 -0.3283  1.7673  0.8769
 5160SOL     OW16899   7.354   3.415   5.139 -0.0270  0.7330 -0.0025
 5160SOL    HW116900   7.289   3.427   5.207  0.7535  0.4815  0.8116
 5160SOL    HW216901   7.424   3.476   5.162 -0.3651  1.6966 -1.3898
 5161SOL     OW16902   3.713   0.008   5.884  0.3586 -0.3006 -0.2576
 5161SOL    HW116903   3.786   0.053   5.926  0.1546 -0.2024 -0.0047
 5161SOL    HW216904   3.752  -0.038   5.810  0.4252  1.1210 -1.1449
 5162SOL     OW16905   0.870   4.062   5.573  0.1189  0.3295 -0.0865
 5162SOL    HW116906   0.933   4.025   5.510  0.6243  0.4282  0.3519
 5162SOL    HW216907   0.883   4.157   5.566  0.3878  0.3272  0.3819
 5163SOL     OW16908   7.926   3.038   7.673 -0.5104 -0.1919  0.2961
 5163SOL    HW116909   7.953   3.106   7.734 -3.3295 -0.2104  1.7619
 5163SOL    HW216910   7.876   3.084   7.606  0.7008 -0.4417 -0.8145
 5164SOL     OW16911   6.989   4.270   3.461  0.8249  0.7898 -0.9492
 5164SOL    HW116912   6.910   4.251   3.511  0.6447 -2.2869 -2.1915
 5164SOL    HW216913   6.983   4.364   3.442 -2.0157  0.8572 -0.1884
 5165SOL     OW16914   7.473   5.154   0.725 -0.1298  0.6320 -0.1026
 5165SOL    HW116915   7.539   5.096   0.764  0.5477  1.3342 -0.1706
 5165SOL    HW216916   7.442   5.106   0.648  1.2907  0.8239 -0.8451
 5166SOL     OW16917   3.667   7.239   0.967 -0.1932 -0.0180  0.3216
 5166SOL    HW116918   3.623   7.213   1.048 -0.1131 -1.4532 -0.0798
 5166SOL    HW216919   3.632   7.326   0.948 -3.3315 -1.2719 -0.2517
 5167SOL     OW16920   2.383   2.427   4.263 -0.1594  0.0950 -0.1847
 5167SOL    HW116921   2.426   2.363   4.320 -0.9119  0.1450  0.4410
 5167SOL    HW216922   2.439   2.429   4.185  0.3989 -0.6174  0.1784
 5168SOL     OW16923   7.396   5.383   6.398  0.1741  0.0928  0.3117
 5168SOL    HW116924   7.355   5.306   6.358  1.2656 -0.5816  0.4345
 5168SOL    HW216925   7.447   5.422   6.327 -0.8438  1.0597  0.0976
 5169SOL     OW16926   7.147   5.108   7.004 -0.3242  0.1338  0.5370
 5169SOL    HW116927   7.171   5.016   7.004  0.4558  0.3111 -0.5090
 5169SOL    HW216928   7.216   5.151   7.055  0.3367  0.3468 -0.4988
 5170SOL     OW16929   3.713   2.614   0.715 -0.3052 -0.0136  0.0337
 5170SOL    HW116930   3.745   2.613   0.625 -0.1653 -2.0416  0.0582
 5170SOL    HW216931   3.789   2.591   0.768 -0.5807  0.3289  0.5855
 5171SOL     OW16932   4.173   6.839   2.132  0.4596  0.2157  0.6310
 5171SOL    HW116933   4.212   6.769   2.184  3.0929  0.9409 -0.2310
 5171SOL    HW216934   4.211   6.919   2.166 -1.6193  1.1910  0.8247
 5172SOL     OW16935   2.915   0.612   3.899 -0.1436 -0.0979 -0.4406
 5172SOL    HW116936   2.904   0.584   3.990  0.4018  2.8681  0.6512
 5172SOL    HW216937   2.826   0.612   3.863 -0.3032 -1.8344 -0.1523
 5173SOL     OW16938   4.165   0.648   7.010  0.9374  0.4159 -0.1875
 5173SOL    HW116939   4.223   0.665   7.085  1.4201  1.1174 -0.7053
 5173SOL    HW216940   4.171   0.554   6.996 -2.0528 -0.4667  2.9955
 5174SOL     OW16941   0.711   6.520   2.816  0.3513  0.1831  0.0799
 5174SOL    HW116942   0.683   6.564   2.897  1.6324  0.7002  0.2721
 5174SOL    HW216943   0.746   6.591   2.761 -0.2186 -0.2063 -0.8071
 5175SOL     OW16944   7.965   5.549   1.343 -0.4007 -0.4115 -0.1576
 5175SOL    HW116945   8.026   5.499   1.397 -1.6543 -1.1948  0.6001
 5175SOL    HW216946   8.014   5.626   1.316  0.6026 -0.5170  1.2468
 5176SOL     OW16947   3.287   6.146   1.452  0.2097  0.6616  0.0894
 5176SOL    HW116948   3.374   6.132   1.490  0.3984  0.3697 -0.4482
 5176SOL    HW216949   3.305   6.187   1.367 -0.1470 -0.0292 -0.3259
 5177SOL     OW16950   0.382   0.891   3.981 -0.6173 -0.1617 -0.3602
 5177SOL    HW116951   0.458   0.925   3.933 -0.0068 -0.2018  0.5507
 5177SOL    HW216952   0.339   0.969   4.016 -1.2158 -0.1134 -1.1666
 5178SOL     OW16953   0.250   4.044   6.261 -0.2725  0.0956 -0.0761
 5178SOL    HW116954   0.218   4.002   6.182  0.9519 -1.2171  0.0893
 5178SOL    HW216955   0.181   4.029   6.326 -0.4615 -0.4387 -0.3991
 5179SOL     OW16956   0.776   3.672   1.637  0.0812  0.4234 -0.1140
 5179SOL    HW116957   0.777   3.576   1.633 -2.9144  0.3328 -1.8513
 5179SOL    HW216958   0.825   3.699   1.559  0.3682  0.2856  0.0189
 5180SOL     OW16959   7.574   5.506   7.345 -0.2659 -0.0913 -0.4855
 5180SOL    HW116960   7.627   5.568   7.396  1.0392 -2.0761  0.6987
 5180SOL    HW216961   7.515   5.562   7.294  0.0551  2.0909  1.3495
 5181SOL     OW16962   7.386   3.401   1.325 -0.8793 -0.2997  0.0403
 5181SOL    HW116963   7.455   3.350   1.367 -0.4005  0.0376 -0.3188
 5181SOL    HW216964   7.323   3.336   1.296  0.1204 -0.7864 -1.1470
 5182SOL     OW16965   0.331   4.940   1.227  0.1483  0.0667 -0.1598
 5182SOL    HW116966   0.318   4.882   1.302 -2.1882 -0.1132 -0.6368
 5182SOL    HW216967   0.344   5.027   1.266  1.2778 -0.3729  0.4846
 5183SOL     OW16968   1.125   7.184   8.016  0.0966 -0.4161  0.3340
 5183SOL    HW116969   1.215   7.187   7.985 -0.2059  2.3386 -0.5272
 5183SOL    HW216970   1.077   7.137   7.947  0.3474  1.0046 -0.8507
 5184SOL     OW16971   1.918   3.296   2.408 -0.4068 -0.5266 -0.5396
 5184SOL    HW116972   1.965   3.238   2.469  1.5520  1.4501 -0.0420
 5184SOL    HW216973   1.968   3.289   2.327  0.5945  1.2684 -0.1347
 5185SOL     OW16974   2.622   4.101   5.253 -0.0719 -0.2047  0.5223
 5185SOL    HW116975   2.603   4.026   5.197 -0.7558  1.3528 -1.4475
 5185SOL    HW216976   2.611   4.067   5.342  0.8574 -2.7280 -0.2203
 5186SOL     OW16977   3.126   7.998   0.973  0.0000 -0.4432 -0.3374
 5186SOL    HW116978   3.133   7.904   0.992  1.7713 -0.1864  0.4778
 5186SOL    HW216979   3.189   8.039   1.032  0.0219  1.1704 -1.4256
 5187SOL     OW16980   6.956   2.155   3.752  0.0828 -0.0613 -0.1315
 5187SOL    HW116981   7.015   2.123   3.683  0.4450  1.7520 -0.7047
 5187SOL    HW216982   7.005   2.224   3.796 -1.8526  2.1273 -1.1924
 5188SOL     OW16983   0.273   2.598   1.202  0.5863 -0.3604 -0.6275
 5188SOL    HW116984   0.285   2.514   1.245 -0.1661 -0.4496 -0.5852
 5188SOL    HW216985   0.338   2.599   1.131  1.1470 -0.6282 -0.1215
 5189SOL     OW16986   0.505   3.875   7.168  0.2085  0.2160  0.0727
 5189SOL    HW116987   0.506   3.789   7.126 -1.9196 -0.4392  1.2059
 5189SOL    HW216988   0.484   3.857   7.260 -0.3989  1.9376  0.3122
 5190SOL     OW16989   1.566   5.145   4.898 -0.4366  0.0762 -0.8218
 5190SOL    HW116990   1.646   5.115   4.941  0.2921  2.7616 -0.1356
 5190SOL    HW216991   1.544   5.075   4.836  2.7847 -0.4686 -1.5056
 5191SOL     OW16992   6.413   3.136   5.031 -0.2907  0.2315  0.1925
 5191SOL    HW116993   6.429   3.115   5.123 -1.5847  1.0391  0.6351
 5191SOL    HW216994   6.370   3.058   4.996 -0.3691  0.1628  0.4395
 5192SOL     OW16995   4.009   3.189   7.449  0.1352 -0.1076  0.2497
 5192SOL    HW116996   4.042   3.104   7.420 -1.2911 -0.1997 -1.2444
 5192SOL    HW216997   3.920   3.193   7.414 -1.1236  0.5548  3.2241
 5193SOL     OW16998   2.618   2.425   2.162 -0.2910 -0.7446  0.2970
 5193SOL    HW116999   2.668   2.456   2.238  0.7132  0.6210 -0.8695
 5193SOL    HW217000   2.548   2.488   2.152  1.6659  1.2509 -1.9928
 5194SOL     OW17001   6.888   5.003   3.050 -0.6577  0.2250 -0.4043
 5194SOL    HW117002   6.867   5.014   3.142 -0.1938 -1.3708 -0.0920
 5194SOL    HW217003   6.891   5.093   3.016  2.0070  1.0725  1.7393
 5195SOL     OW17004   1.760   1.617   5.939 -1.0838  0.3206  0.4101
 5195SOL    HW117005   1.736   1.645   5.850  0.7760  0.0380 -0.2319
 5195SOL    HW217006   1.740   1.524   5.941 -1.9018  0.4916  0.5899
 5196SOL     OW17007   0.955   4.298   4.801 -0.3999  0.4772 -0.1463
 5196SOL    HW117008   1.015   4.224   4.810  0.7479  1.5420  1.4961
 5196SOL    HW217009   0.945   4.309   4.706  0.4929 -0.9093 -0.4279
 5197SOL     OW17010   4.673   0.162   4.658 -0.4618 -0.1424  0.1052
 5197SOL    HW117011   4.718   0.097   4.605  1.7023  0.6261  0.9086
 5197SOL    HW217012   4.660   0.237   4.600 -1.4315 -0.6400 -0.3402
 5198SOL     OW17013   4.405   3.116   5.528 -0.1506  0.5045  0.1991
 5198SOL    HW117014   4.388   3.023   5.515  1.3360  0.2962 -0.4302
 5198SOL    HW217015   4.464   3.119   5.604  2.6444  0.5913 -1.8284
 5199SOL     OW17016   5.907   5.118   4.268 -0.5414 -0.7910  0.4926
 5199SOL    HW117017   5.813   5.113   4.250 -0.5333 -1.1544  0.5443
 5199SOL    HW217018   5.938   5.028   4.257 -0.1478 -0.6221  0.1841
 5200SOL     OW17019   6.574   0.028   3.397 -0.1976 -0.0768  0.5699
 5200SOL    HW117020   6.507  -0.034   3.370  0.5439 -0.8777  0.5374
 5200SOL    HW217021   6.578   0.021   3.492  1.8623 -2.2479  0.4261
 5201SOL     OW17022   6.104   2.462   7.150 -0.1576 -0.0666 -0.0902
 5201SOL    HW117023   6.140   2.476   7.063 -0.9497 -2.2050 -0.8105
 5201SOL    HW217024   6.026   2.517   7.153  0.5655  0.9908 -0.2335
 5202SOL     OW17025   3.078   0.055   5.892  0.5498 -0.6652  0.2597
 5202SOL    HW117026   3.088   0.094   5.979 -0.1092 -0.7774  0.3899
 5202SOL    HW217027   3.121   0.117   5.834 -0.3901  0.2302  0.4826
 5203SOL     OW17028   0.858   0.329   4.262  0.0865  0.3582 -0.2449
 5203SOL    HW117029   0.877   0.327   4.168  3.3070  1.4885  0.2641
 5203SOL    HW217030   0.788   0.394   4.270 -1.0959 -0.6196 -1.9194
 5204SOL     OW17031   1.295   7.839   5.600  0.0293  0.2476 -0.1519
 5204SOL    HW117032   1.381   7.797   5.593  1.1765  1.9791  1.9727
 5204SOL    HW217033   1.239   7.773   5.641  1.2159  0.0581  1.2499
 5205SOL     OW17034   1.496   1.711   5.051  0.1597  0.3755 -0.0528
 5205SOL    HW117035   1.490   1.715   5.147 -0.2493  1.2535 -0.1076
 5205SOL    HW217036   1.421   1.762   5.020  1.5670  2.0987 -0.8266
 5206SOL     OW17037   0.631   3.988   2.305  0.2276 -0.0256  1.2449
 5206SOL    HW117038   0.571   3.931   2.352 -0.5163 -1.1306 -0.9249
 5206SOL    HW217039   0.588   4.074   2.305 -0.2214 -0.2478  1.6944
 5207SOL     OW17040   1.925   0.271   5.713 -0.1746  1.4847 -0.0939
 5207SOL    HW117041   1.843   0.296   5.754  0.7513  2.0547  1.4808
 5207SOL    HW217042   1.990   0.331   5.749  1.8465 -1.8722  2.5631
 5208SOL     OW17043   2.991   3.770   4.593  0.1127 -0.0405 -0.0579
 5208SOL    HW117044   2.930   3.696   4.588  0.1465 -0.1391  0.8298
 5208SOL    HW217045   3.028   3.777   4.505 -0.6211 -0.4556 -0.4078
 5209SOL     OW17046   7.732   5.121   1.290  0.0267  0.4563  0.2878
 5209SOL    HW117047   7.764   5.202   1.249  0.4474 -0.3446 -1.0271
 5209SOL    HW217048   7.757   5.130   1.382  2.2035  0.8174 -0.2699
 5210SOL     OW17049   1.296   1.292   4.745  0.2419 -0.3589 -0.4452
 5210SOL    HW117050   1.238   1.249   4.682 -0.3146  0.9691 -0.8713
 5210SOL    HW217051   1.297   1.384   4.718  0.9340  0.0176  0.7931
 5211SOL     OW17052   2.634   5.297   7.956 -0.1034  0.1556  0.0429
 5211SOL    HW117053   2.691   5.292   8.032  1.2574  1.5935 -0.8375
 5211SOL    HW217054   2.609   5.206   7.938  2.3736 -0.5925  0.1232
 5212SOL     OW17055   6.893   5.398   5.258  0.1353 -0.1576  0.3651
 5212SOL    HW117056   6.866   5.327   5.199  1.5780 -0.7320  0.3635
 5212SOL    HW217057   6.914   5.471   5.199  0.7129 -0.4374  0.2201
 5213SOL     OW17058   1.027   2.723   7.078  0.5410 -0.8848 -0.1585
 5213SOL    HW117059   1.067   2.677   7.151 -1.9573 -1.0473  1.2014
 5213SOL    HW217060   1.062   2.812   7.085 -0.7777 -0.4670  2.2541
 5214SOL     OW17061   1.474   4.311   6.985  0.2819 -0.3887  0.0733
 5214SOL    HW117062   1.528   4.243   6.944 -1.3372 -1.1537 -0.8713
 5214SOL    HW217063   1.400   4.321   6.926  0.6742  2.5552 -0.0541
 5215SOL     OW17064   7.543   2.843   5.212  0.2280  0.2556  0.2867
 5215SOL    HW117065   7.509   2.771   5.265  1.3455 -1.1933 -0.9061
 5215SOL    HW217066   7.502   2.921   5.249 -1.7705 -1.0664  1.0115
 5216SOL     OW17067   3.633   3.076   4.849  0.2366  0.0521  0.1861
 5216SOL    HW117068   3.630   3.171   4.841 -0.3857  0.1152  1.0443
 5216SOL    HW217069   3.548   3.047   4.816 -0.2669 -0.0634  1.5332
 5217SOL     OW17070   1.133   0.675   4.858  0.0836 -1.0259  0.1775
 5217SOL    HW117071   1.093   0.598   4.817 -0.7047 -1.1688  1.1816
 5217SOL    HW217072   1.114   0.747   4.798  0.2801 -1.4947 -0.4598
 5218SOL     OW17073   3.600   0.034   2.150 -0.6417 -0.5768 -0.0751
 5218SOL    HW117074   3.635   0.043   2.238 -0.6465 -0.6037 -0.0706
 5218SOL    HW217075   3.525  -0.025   2.159 -1.3026  0.2552  0.0868
 5219SOL     OW17076   4.741   0.826   5.920  0.0376 -0.5185 -0.1764
 5219SOL    HW117077   4.677   0.756   5.912  0.8183 -1.1986 -0.6448
 5219SOL    HW217078   4.754   0.836   6.015 -0.6301 -0.4806 -0.0862
 5220SOL     OW17079   4.899   7.346   6.519 -0.2035 -0.0554 -1.0314
 5220SOL    HW117080   4.912   7.337   6.613 -0.1026 -0.5821 -1.0949
 5220SOL    HW217081   4.822   7.293   6.500  1.1574 -1.9138 -1.6110
 5221SOL     OW17082   0.057   3.325   4.594  0.1218  0.2535 -0.4948
 5221SOL    HW117083  -0.033   3.351   4.574 -0.2303  0.4563  1.1891
 5221SOL    HW217084   0.075   3.252   4.535 -0.8076  0.7926 -1.4884
 5222SOL     OW17085   6.997   3.181   2.153 -0.2637 -0.1661  0.7404
 5222SOL    HW117086   7.056   3.109   2.175  0.2465 -0.1960 -0.6268
 5222SOL    HW217087   6.917   3.163   2.202  0.8503 -0.1121  2.6530
 5223SOL     OW17088   7.300   2.062   6.617 -0.0368  0.1792 -0.1156
 5223SOL    HW117089   7.253   2.113   6.682 -0.7027 -0.4500 -0.0878
 5223SOL    HW217090   7.236   1.999   6.584  0.5099 -0.0448 -0.7998
 5224SOL     OW17091   1.875   2.069   4.375  0.4421 -0.0067  0.0438
 5224SOL    HW117092   1.939   2.136   4.396 -0.7538  1.1638  0.1183
 5224SOL    HW217093   1.831   2.051   4.458  0.1578 -0.2276 -0.1518
 5225SOL     OW17094   2.286   4.100   2.220  0.5645  0.0728 -0.0670
 5225SOL    HW117095   2.247   4.183   2.247  0.8049 -0.3516  1.7362
 5225SOL    HW217096   2.357   4.125   2.160  1.4450  1.3030  1.4004
 5226SOL     OW17097   5.287   3.249   0.466  0.3151  0.2774  0.4686
 5226SOL    HW117098   5.294   3.345   0.474  1.5404  0.1812  0.7920
 5226SOL    HW217099   5.279   3.219   0.556  0.0533  0.0628  0.3730
 5227SOL     OW17100   1.473   5.285   8.046 -0.2619  0.0115 -0.1405
 5227SOL    HW117101   1.481   5.380   8.049 -0.0527 -0.0295  1.0160
 5227SOL    HW217102   1.469   5.264   7.953  0.4122  1.0953 -0.4316
 5228SOL     OW17103   1.465   4.835   3.370 -0.3298 -0.3493 -0.1390
 5228SOL    HW117104   1.391   4.875   3.324 -0.4057 -0.7496 -0.3685
 5228SOL    HW217105   1.439   4.745   3.384 -0.1656 -0.3163  0.3945
 5229SOL     OW17106   2.567   7.101   1.411  0.2003 -0.4350 -0.5915
 5229SOL    HW117107   2.472   7.113   1.412  0.1395 -0.8551  1.0277
 5229SOL    HW217108   2.581   7.016   1.371 -0.1405 -0.5938 -0.3721
 5230SOL     OW17109   4.820   6.241   4.611  0.0628  0.0130  0.1849
 5230SOL    HW117110   4.752   6.182   4.578 -0.3461 -0.0655  1.1258
 5230SOL    HW217111   4.899   6.186   4.614  0.4997  0.4403 -2.0767
 5231SOL     OW17112   3.671   4.558   3.626 -0.2528 -0.2167 -0.1505
 5231SOL    HW117113   3.700   4.484   3.680  0.4648 -0.5500 -0.9670
 5231SOL    HW217114   3.581   4.536   3.603 -0.9589  0.4612  1.7828
 5232SOL     OW17115   4.604   7.432   7.466 -0.1702 -0.0650  0.3709
 5232SOL    HW117116   4.531   7.436   7.404  0.2443  0.8963 -0.0681
 5232SOL    HW217117   4.599   7.514   7.515  1.4045  0.6349 -0.5746
 5233SOL     OW17118   1.548   7.292   1.426 -0.2938  0.1045 -0.2597
 5233SOL    HW117119   1.524   7.352   1.496 -0.1928 -1.5920  1.3038
 5233SOL    HW217120   1.619   7.239   1.463 -1.1936 -1.7896 -1.0932
 5234SOL     OW17121   7.398   3.681   1.361  0.6063 -0.1362 -0.0671
 5234SOL    HW117122   7.419   3.708   1.450 -0.3231  0.0116  0.1200
 5234SOL    HW217123   7.398   3.585   1.364 -1.2330 -0.1571  0.5723
 5235SOL     OW17124   7.330   4.751   4.918 -0.0542  0.3741 -0.6093
 5235SOL    HW117125   7.296   4.785   4.835  0.8420 -0.3601 -1.3060
 5235SOL    HW217126   7.311   4.820   4.982 -1.3699  0.6733 -1.2708
 5236SOL     OW17127   0.044   2.417   2.325  0.8217 -0.1581  0.8378
 5236SOL    HW117128   0.047   2.322   2.338 -0.8441 -0.3929 -0.1594
 5236SOL    HW217129   0.123   2.436   2.275  2.2675 -0.6637  2.8313
 5237SOL     OW17130   5.844   6.527   5.986  0.3828 -0.0029  0.1880
 5237SOL    HW117131   5.844   6.622   5.972  3.1734  0.2156  1.0877
 5237SOL    HW217132   5.834   6.517   6.081  2.2558 -0.4371  0.3843
 5238SOL     OW17133   6.474   1.404   1.359  0.1294  0.1362 -0.2123
 5238SOL    HW117134   6.427   1.377   1.439  0.3042  1.8168  0.4977
 5238SOL    HW217135   6.562   1.425   1.390  0.5471 -0.3049 -1.0728
 5239SOL     OW17136   6.526   2.985   1.582  0.3198  0.1025  0.5310
 5239SOL    HW117137   6.564   2.916   1.636  0.2583  0.6724  1.3196
 5239SOL    HW217138   6.579   2.985   1.502 -0.2893 -1.4970  0.1015
 5240SOL     OW17139   7.472   2.455   2.617 -0.7170  0.2593 -0.2190
 5240SOL    HW117140   7.443   2.376   2.571 -1.0323 -0.1105  0.6012
 5240SOL    HW217141   7.402   2.473   2.679 -1.0409  1.6717 -0.9639
 5241SOL     OW17142   3.578   3.724   7.623 -0.2925 -0.3755  0.3904
 5241SOL    HW117143   3.585   3.816   7.596 -2.1577 -0.2553  0.1669
 5241SOL    HW217144   3.561   3.677   7.541  0.3159 -0.8877  0.5512
 5242SOL     OW17145   2.876   1.150   6.841  0.1599  0.2812 -0.2958
 5242SOL    HW117146   2.815   1.145   6.767 -0.4765  1.2138  0.1412
 5242SOL    HW217147   2.934   1.223   6.820 -0.0650  0.5926  0.1378
 5243SOL     OW17148   5.315   3.628   3.267 -0.4464  0.6400  0.2798
 5243SOL    HW117149   5.391   3.668   3.225 -0.7570  1.2441  0.2865
 5243SOL    HW217150   5.285   3.693   3.330 -0.2388 -0.0907  1.1459
 5244SOL     OW17151   6.026   4.678   3.389 -0.7189  0.0429 -0.0901
 5244SOL    HW117152   5.995   4.647   3.304 -1.2692 -1.1206  0.5106
 5244SOL    HW217153   6.062   4.765   3.371 -2.9353  0.8198 -1.1184
 5245SOL     OW17154   3.415   3.038   5.198  0.3724 -0.2353  0.3851
 5245SOL    HW117155   3.504   3.009   5.182  0.9619 -0.1104  2.9663
 5245SOL    HW217156   3.369   2.960   5.229 -0.0165  0.0046  0.4297
 5246SOL     OW17157   2.923   1.261   4.228 -0.1198 -0.5442  0.0479
 5246SOL    HW117158   2.877   1.179   4.245  0.6495 -1.4337 -1.9043
 5246SOL    HW217159   3.006   1.252   4.273  0.1184 -1.0316 -0.4671
 5247SOL     OW17160   0.645   3.418   4.216  0.1882  0.1628 -0.3431
 5247SOL    HW117161   0.681   3.330   4.206  0.9106  0.3117  0.7711
 5247SOL    HW217162   0.550   3.407   4.206  0.3595 -0.5754 -1.1983
 5248SOL     OW17163   3.159   7.206   5.972  0.4631  0.0827  0.3590
 5248SOL    HW117164   3.145   7.145   5.900 -2.5068 -0.5351  1.2891
 5248SOL    HW217165   3.140   7.154   6.051 -0.8068  1.8223  1.2690
 5249SOL     OW17166   1.454   2.634   7.133  0.4516  0.2052 -0.2777
 5249SOL    HW117167   1.471   2.721   7.169 -3.3689  0.7377  0.6326
 5249SOL    HW217168   1.381   2.600   7.184 -0.3892 -2.1395 -2.7789
 5250SOL     OW17169   4.099   2.218   7.646 -0.4628  0.3008 -0.1443
 5250SOL    HW117170   4.060   2.282   7.586 -0.8884  0.2691  0.0958
 5250SOL    HW217171   4.044   2.140   7.636  0.2534 -0.1537 -0.6926
 5251SOL     OW17172   0.678   4.935   5.512  0.2502  1.1764  0.0469
 5251SOL    HW117173   0.667   5.022   5.551  1.6564  1.1260  0.6189
 5251SOL    HW217174   0.702   4.952   5.421 -3.3038  1.2936 -0.9908
 5252SOL     OW17175   3.949   0.960   3.225  0.2497  0.1102 -0.6623
 5252SOL    HW117176   3.901   0.996   3.151  1.3935  1.0644 -0.9584
 5252SOL    HW217177   3.977   0.873   3.196 -1.2279 -0.4491 -0.4973
 5253SOL     OW17178   0.182   2.829   4.445  0.3578 -0.1173 -0.1279
 5253SOL    HW117179   0.092   2.855   4.429  0.3658 -0.9832 -1.7120
 5253SOL    HW217180   0.229   2.912   4.454 -0.5079  0.3412  0.3170
 5254SOL     OW17181   1.482   3.512   5.912  0.7106  0.4068 -0.1795
 5254SOL    HW117182   1.450   3.536   5.825  0.5063  0.9047  0.0309
 5254SOL    HW217183   1.541   3.438   5.896  1.9551  1.5169 -0.9353
 5255SOL     OW17184   2.509   7.258   5.549  0.5839  0.0003  0.8258
 5255SOL    HW117185   2.423   7.230   5.582  0.7850 -0.6699  0.7868
 5255SOL    HW217186   2.515   7.350   5.575 -0.4106  0.2370  0.2917
 5256SOL     OW17187   0.374   1.006   2.193 -0.4988  0.2714  0.1247
 5256SOL    HW117188   0.297   1.011   2.250  0.4150  0.0882  1.4122
 5256SOL    HW217189   0.444   0.974   2.250  0.1619 -1.1269 -1.3957
 5257SOL     OW17190   1.729   2.306   6.877  0.0174 -0.8920 -0.1818
 5257SOL    HW117191   1.645   2.262   6.865  0.7098 -2.7431  1.2457
 5257SOL    HW217192   1.708   2.384   6.928 -0.8514 -1.3036  0.1161
 5258SOL     OW17193   0.357   0.378   7.086  0.3220 -0.0987  0.1272
 5258SOL    HW117194   0.281   0.428   7.116  1.3031  1.3849  0.2372
 5258SOL    HW217195   0.328   0.287   7.090 -1.0391  0.3386  1.3641
 5259SOL     OW17196   1.916   1.083   0.498 -0.2673 -0.1537  0.3448
 5259SOL    HW117197   1.866   1.003   0.517 -0.3570 -0.0238  0.6610
 5259SOL    HW217198   1.978   1.057   0.430 -0.1492 -0.5497  0.6026
 5260SOL     OW17199   5.920   4.769   2.490  0.0516  0.6385  0.6479
 5260SOL    HW117200   5.967   4.849   2.468 -0.0093  0.4944 -0.0537
 5260SOL    HW217201   5.987   4.709   2.521  0.4091  0.3045 -0.7088
 5261SOL     OW17202   7.110   7.507   6.954  0.2613 -0.5126 -0.4120
 5261SOL    HW117203   7.048   7.540   6.889  0.3135 -0.6129 -0.5136
 5261SOL    HW217204   7.066   7.431   6.993  0.4262 -0.7415 -0.6671
 5262SOL     OW17205   2.889   2.677   2.323  0.2758  0.0858  0.3718
 5262SOL    HW117206   2.904   2.716   2.237 -2.2068  0.3285 -0.0089
 5262SOL    HW217207   2.918   2.586   2.314  0.1284  0.1357 -0.6848
 5263SOL     OW17208   1.784   4.660   4.936 -0.7978 -0.0575  0.7698
 5263SOL    HW117209   1.754   4.569   4.932 -0.3554 -0.2967  2.4495
 5263SOL    HW217210   1.871   4.655   4.976  0.1977  0.9271 -1.1026
 5264SOL     OW17211   0.827   7.541   2.930 -0.1618  0.1636  0.4841
 5264SOL    HW117212   0.769   7.545   3.007  1.4262 -0.5756  1.7880
 5264SOL    HW217213   0.824   7.629   2.893 -0.9344  0.5501  1.4327
 5265SOL     OW17214   3.258   4.934   2.470  0.4386  0.4944  0.5987
 5265SOL    HW117215   3.280   5.026   2.479 -0.2914  0.9483 -1.6103
 5265SOL    HW217216   3.163   4.930   2.486  0.3037  0.2898 -0.2100
 5266SOL     OW17217   2.261   5.449   0.284  0.3177 -0.2883  0.4384
 5266SOL    HW117218   2.211   5.404   0.216  0.2350 -0.1559  0.4128
 5266SOL    HW217219   2.347   5.408   0.280  1.1413  1.4569 -1.4898
 5267SOL     OW17220   2.930   1.757   2.674 -0.7030  0.5313 -0.2946
 5267SOL    HW117221   2.950   1.850   2.663 -0.4095  0.5315  0.2210
 5267SOL    HW217222   2.925   1.745   2.769 -0.7092  0.0161 -0.3602
 5268SOL     OW17223   5.020   2.559   6.750  0.4212 -0.1730  0.1295
 5268SOL    HW117224   4.928   2.561   6.776 -0.3909  1.0976 -2.5450
 5268SOL    HW217225   5.068   2.579   6.831 -1.4903 -2.3575  1.9303
 5269SOL     OW17226   6.111   5.204   3.307 -0.3849  0.4636 -0.1499
 5269SOL    HW117227   6.147   5.293   3.305  0.0350  0.4647  2.8730
 5269SOL    HW217228   6.016   5.217   3.304 -0.3224  0.9936 -0.0020
 5270SOL     OW17229   2.218   1.738   1.938 -0.0485 -0.1510 -0.0786
 5270SOL    HW117230   2.147   1.700   1.886  1.1272 -1.7796 -0.5849
 5270SOL    HW217231   2.201   1.707   2.027  0.7485 -1.7161 -0.4412
 5271SOL     OW17232   6.450   4.098   6.898 -0.1276  0.2283  0.1541
 5271SOL    HW117233   6.430   4.025   6.956 -1.1312  0.1050 -0.3150
 5271SOL    HW217234   6.412   4.175   6.941 -0.7111  0.1654 -0.2322
 5272SOL     OW17235   6.492   7.488   5.695  0.0868 -0.0132 -0.8262
 5272SOL    HW117236   6.556   7.420   5.713 -4.0808 -4.3661 -0.3352
 5272SOL    HW217237   6.482   7.488   5.600 -0.3349 -0.6189 -0.7880
 5273SOL     OW17238   4.477   2.700   1.170 -0.0932 -0.2135 -0.1236
 5273SOL    HW117239   4.511   2.634   1.110 -0.3416 -0.9551  0.5313
 5273SOL    HW217240   4.439   2.766   1.113 -0.1485 -0.8073 -0.7931
 5274SOL     OW17241   4.008   1.616   0.308 -0.3972  0.0301 -0.3501
 5274SOL    HW117242   4.024   1.707   0.282 -0.1997  0.3165  0.7137
 5274SOL    HW217243   3.950   1.623   0.384 -0.6363 -0.7500 -0.4563
 5275SOL     OW17244   6.549   1.882   2.783 -0.2091 -0.0431 -0.4666
 5275SOL    HW117245   6.637   1.914   2.805 -0.8795  2.0989 -0.7282
 5275SOL    HW217246   6.491   1.929   2.842 -1.1440 -2.1736  0.3838
 5276SOL     OW17247   5.774   4.992   5.780  0.4267  0.8467 -0.2810
 5276SOL    HW117248   5.864   4.978   5.808  0.0468 -0.3080  0.4106
 5276SOL    HW217249   5.743   4.906   5.751 -0.7795  1.0004  0.4708
 5277SOL     OW17250   7.512   6.217   3.379  0.3273  0.3474  0.5250
 5277SOL    HW117251   7.575   6.188   3.314 -1.9585 -1.8328 -0.9064
 5277SOL    HW217252   7.538   6.172   3.460 -0.1582 -1.7173 -0.4044
 5278SOL     OW17253   5.018   2.955   3.842  0.1936 -0.0666  0.5359
 5278SOL    HW117254   5.107   2.984   3.862 -0.3325  2.0870 -0.0004
 5278SOL    HW217255   4.961   3.019   3.886 -1.0221  0.3664 -1.5319
 5279SOL     OW17256   6.800   3.624   1.905 -0.2192 -0.0260  0.1167
 5279SOL    HW117257   6.834   3.621   1.816  0.9758 -1.6902  0.5774
 5279SOL    HW217258   6.775   3.534   1.925 -1.5894  0.5196  1.0785
 5280SOL     OW17259   0.157   0.461   3.076  0.4753  0.4507  0.3394
 5280SOL    HW117260   0.135   0.399   3.145 -0.7581 -1.8978 -1.9618
 5280SOL    HW217261   0.078   0.464   3.021  1.5050  1.9193 -1.1408
 5281SOL     OW17262   1.341   5.087   5.602  0.0252 -0.5850  0.0202
 5281SOL    HW117263   1.370   5.080   5.512 -0.4850 -1.4728 -0.0901
 5281SOL    HW217264   1.261   5.033   5.606 -1.0733  1.0037  0.5221
 5282SOL     OW17265   7.778   1.195   1.388 -0.1043  0.4314 -0.0523
 5282SOL    HW117266   7.782   1.164   1.298 -1.2102  0.6560 -0.1933
 5282SOL    HW217267   7.857   1.159   1.430  0.7412  0.8269 -1.2507
 5283SOL     OW17268   1.274   2.889   3.319 -0.0581 -0.4215  0.1630
 5283SOL    HW117269   1.223   2.873   3.399 -1.8329 -1.1125 -1.0417
 5283SOL    HW217270   1.329   2.964   3.340 -1.1526 -0.0145  1.7391
 5284SOL     OW17271   2.519   0.423   7.459 -0.5930  0.3300 -1.1295
 5284SOL    HW117272   2.543   0.428   7.551 -0.5984  0.3866 -1.1308
 5284SOL    HW217273   2.603   0.414   7.413 -0.6867 -1.8401 -0.9926
 5285SOL     OW17274   4.431   3.861   4.617  0.2869  0.4017 -0.1590
 5285SOL    HW117275   4.353   3.899   4.657  1.0527  1.5409  0.3283
 5285SOL    HW217276   4.436   3.773   4.653  0.4689  1.0974  1.6566
 5286SOL     OW17277   3.574   1.919   6.127  0.6357 -0.1137 -0.0858
 5286SOL    HW117278   3.522   1.910   6.207  0.2344  1.6932 -0.1126
 5286SOL    HW217279   3.509   1.923   6.057  0.8921  0.2429 -0.3045
 5287SOL     OW17280   1.585   7.854   2.661 -0.6038 -0.2721 -0.1348
 5287SOL    HW117281   1.628   7.909   2.726 -0.7991 -1.3803  0.9622
 5287SOL    HW217282   1.494   7.883   2.661 -0.6095 -0.2909  0.1017
 5288SOL     OW17283   3.729   1.743   1.324  0.1662 -0.3440 -0.0575
 5288SOL    HW117284   3.811   1.726   1.371  0.6787 -1.0035 -1.1503
 5288SOL    HW217285   3.757   1.761   1.234 -0.9230 -0.9186 -0.5243
 5289SOL     OW17286   6.996   6.020   5.199  0.4101  0.2554  0.3292
 5289SOL    HW117287   7.048   6.097   5.179 -0.6191  1.5871  2.4981
 5289SOL    HW217288   7.019   5.997   5.289  1.1242 -2.3981 -0.4181
 5290SOL     OW17289   4.201   2.900   6.718  0.0285 -0.6250 -0.4565
 5290SOL    HW117290   4.277   2.909   6.775 -0.7019  2.3884  0.2639
 5290SOL    HW217291   4.219   2.958   6.644 -0.4698 -1.8961 -1.6058
 5291SOL     OW17292   1.270   2.517   2.054  0.2961  0.3245 -0.1667
 5291SOL    HW117293   1.240   2.593   2.103  1.2030  0.3102  0.4270
 5291SOL    HW217294   1.366   2.522   2.058  0.3658 -0.6482 -0.4227
 5292SOL     OW17295   2.888   6.246   2.053  0.3759 -0.3767 -0.0780
 5292SOL    HW117296   2.932   6.169   2.090 -1.6975 -1.1886  0.8895
 5292SOL    HW217297   2.826   6.210   1.989 -0.8568  0.4179  0.6235
 5293SOL     OW17298   3.904   6.924   2.079  0.5866  0.2971 -0.0234
 5293SOL    HW117299   4.000   6.933   2.083  0.5308  0.9314 -0.0121
 5293SOL    HW217300   3.872   6.987   2.144  0.1261  0.8193 -0.7422
 5294SOL     OW17301   1.264   4.991   3.678  0.7102  0.0049 -0.1848
 5294SOL    HW117302   1.193   5.000   3.741  1.4240 -1.9940  1.0260
 5294SOL    HW217303   1.303   5.078   3.673  0.9202  0.1670  2.5338
 5295SOL     OW17304   6.513   4.236   6.681  0.2522  0.0866 -0.5604
 5295SOL    HW117305   6.583   4.291   6.715 -0.8768  1.6166 -0.5948
 5295SOL    HW217306   6.476   4.192   6.758  0.2990  0.4197 -0.3493
 5296SOL     OW17307   5.889   2.772   4.974  0.2107 -0.1731  0.0075
 5296SOL    HW117308   5.923   2.833   4.909 -1.3170 -1.3474 -2.0208
 5296SOL    HW217309   5.941   2.692   4.960  3.4603  0.9033  3.8223
 5297SOL     OW17310   0.145   7.974   0.545 -0.4234 -0.4200  0.2708
 5297SOL    HW117311   0.087   7.903   0.517 -2.7931 -0.2891  4.1669
 5297SOL    HW217312   0.196   7.936   0.617  2.1281  0.4669 -0.9144
 5298SOL     OW17313   1.164   2.572   0.058 -0.3988  0.2200  0.0426
 5298SOL    HW117314   1.239   2.566   0.117 -1.1534 -0.9873  0.9364
 5298SOL    HW217315   1.188   2.517  -0.016 -0.4916 -0.3950  0.4577
 5299SOL     OW17316   7.872   0.746   5.148  0.4081 -0.2373  0.3977
 5299SOL    HW117317   7.810   0.736   5.221  0.3625 -1.1594  0.2486
 5299SOL    HW217318   7.957   0.725   5.186  0.2092 -2.1898 -0.1082
 5300SOL     OW17319   3.135   0.629   7.072 -0.3932  0.1920 -0.0890
 5300SOL    HW117320   3.074   0.567   7.111  1.0027 -1.4987 -0.4842
 5300SOL    HW217321   3.103   0.642   6.982 -1.0515  0.5822  0.1927
 5301SOL     OW17322   2.424   3.040   3.212 -0.3823 -0.1377 -0.0659
 5301SOL    HW117323   2.402   3.029   3.305 -1.0907  2.8931  0.2377
 5301SOL    HW217324   2.464   2.957   3.187 -0.1215 -1.0531  2.9515
 5302SOL     OW17325   1.681   5.837   5.566 -0.0700 -0.0459 -0.0346
 5302SOL    HW117326   1.644   5.920   5.537 -0.5155 -1.0091 -2.5598
 5302SOL    HW217327   1.759   5.826   5.511 -0.4673 -1.6297 -0.3354
 5303SOL     OW17328   7.891   6.542   2.191 -0.1381  0.2951 -0.4480
 5303SOL    HW117329   7.891   6.602   2.117 -0.2005  0.5284 -0.2618
 5303SOL    HW217330   7.948   6.584   2.256 -1.1966  0.8044  0.1906
 5304SOL     OW17331   7.907   3.983   4.801  0.0498 -0.1065 -0.0876
 5304SOL    HW117332   7.851   3.987   4.879 -0.8698  2.7987 -0.7951
 5304SOL    HW217333   7.938   4.072   4.788  1.0582 -0.7124 -2.4527
 5305SOL     OW17334   0.644   5.412   5.102  0.2288  0.4323  0.5896
 5305SOL    HW117335   0.678   5.407   5.013  0.5349  4.6119  0.2727
 5305SOL    HW217336   0.714   5.452   5.152 -0.0267 -1.6240  2.7762
 5306SOL     OW17337   4.206   7.617   2.666  0.0655 -0.2372 -1.0577
 5306SOL    HW117338   4.286   7.564   2.662  0.9900  1.0069 -0.0872
 5306SOL    HW217339   4.135   7.554   2.659  1.1253 -1.5960 -0.1470
 5307SOL     OW17340   0.887   5.108   7.978  0.1312 -0.5928 -0.2030
 5307SOL    HW117341   0.845   5.132   8.060  1.8415 -0.7847  0.7821
 5307SOL    HW217342   0.861   5.018   7.962 -1.4623 -0.0678 -0.7257
 5308SOL     OW17343   4.537   2.672   6.015  0.4661 -0.0899 -0.2690
 5308SOL    HW117344   4.606   2.679   6.081  1.4573 -0.5273 -1.2439
 5308SOL    HW217345   4.564   2.730   5.944 -0.3480  0.0031 -0.5210
 5309SOL     OW17346   2.781   1.968   4.903  0.3152  0.4628  0.0326
 5309SOL    HW117347   2.852   1.937   4.847 -0.1151 -1.1253  0.3167
 5309SOL    HW217348   2.745   1.889   4.943 -0.3291  1.4220  1.4428
 5310SOL     OW17349   7.366   7.257   1.149  0.1887 -0.1749  0.3296
 5310SOL    HW117350   7.271   7.249   1.136  0.2427  0.9230 -1.0690
 5310SOL    HW217351   7.388   7.340   1.105  1.9323 -0.8726 -0.1710
 5311SOL     OW17352   3.577   5.565   3.169  0.2775 -0.4122  0.1614
 5311SOL    HW117353   3.550   5.619   3.243  0.7783 -1.4454  1.1327
 5311SOL    HW217354   3.506   5.501   3.158 -1.0353  1.2721 -1.9378
 5312SOL     OW17355   6.276   2.583   3.256  0.0927  0.5338 -0.3142
 5312SOL    HW117356   6.332   2.520   3.211  2.2553  2.3239 -0.3151
 5312SOL    HW217357   6.332   2.619   3.326 -1.2743  1.9538  0.1077
 5313SOL     OW17358   4.121   2.853   4.823  0.5121 -0.4470  0.2967
 5313SOL    HW117359   4.043   2.908   4.820  0.7511  0.0053  1.5486
 5313SOL    HW217360   4.163   2.876   4.906  2.3796 -0.1094 -0.6757
 5314SOL     OW17361   3.864   6.797   5.429 -0.1650  0.3494  0.0757
 5314SOL    HW117362   3.878   6.706   5.458 -1.4838  0.2701  0.5251
 5314SOL    HW217363   3.914   6.849   5.491 -0.5343  0.0035  0.6734
 5315SOL     OW17364   3.139   2.097   5.828 -0.2225  0.1119  0.0093
 5315SOL    HW117365   3.173   2.162   5.766 -0.5568  1.2197  0.9324
 5315SOL    HW217366   3.215   2.046   5.854  0.0224  0.0244 -0.8499
 5316SOL     OW17367   0.529   6.349   4.241 -0.4880  0.3112  0.0618
 5316SOL    HW117368   0.435   6.339   4.257 -0.6751  1.2065 -0.4011
 5316SOL    HW217369   0.534   6.418   4.175  0.3966 -1.0901 -1.3907
 5317SOL     OW17370   1.771   4.098   3.117 -0.0385 -0.9026  0.5244
 5317SOL    HW117371   1.765   4.181   3.070  0.9221 -0.8951  0.3894
 5317SOL    HW217372   1.792   4.122   3.207 -0.7013 -0.9671  0.7023
 5318SOL     OW17373   7.858   1.340   3.750  0.1175 -0.5007  0.1424
 5318SOL    HW117374   7.833   1.427   3.720 -0.2173 -1.3230 -2.1024
 5318SOL    HW217375   7.948   1.328   3.720  1.4124  0.2741  3.3325
 5319SOL     OW17376   1.025   0.910   4.752  0.9723  0.1557 -0.7664
 5319SOL    HW117377   1.051   1.001   4.770  1.1364 -0.0060 -0.1473
 5319SOL    HW217378   0.935   0.916   4.721  0.8974  0.5130 -0.4852
 5320SOL     OW17379   5.195   6.342   3.033  0.1483  0.2885 -0.1611
 5320SOL    HW117380   5.102   6.349   3.011  0.0312 -0.5011  0.0643
 5320SOL    HW217381   5.213   6.248   3.034  1.1014  0.4550 -0.8235
 5321SOL     OW17382   1.190   0.264   3.507  0.3980  0.2218 -0.4773
 5321SOL    HW117383   1.220   0.343   3.553  2.9118  0.6881 -2.6873
 5321SOL    HW217384   1.270   0.218   3.485 -0.9301 -1.9035 -1.1193
 5322SOL     OW17385   2.940   2.153   6.711 -0.3436 -0.5194  0.4062
 5322SOL    HW117386   2.933   2.141   6.806 -1.4343 -2.1811  0.1685
 5322SOL    HW217387   2.985   2.074   6.680 -0.1049 -0.0496 -0.4791
 5323SOL     OW17388   2.961   6.535   7.839  0.0542  0.4424  0.3060
 5323SOL    HW117389   2.975   6.628   7.823 -3.5519  1.1376  0.4153
 5323SOL    HW217390   2.930   6.501   7.755  1.8066 -0.8580  0.1267
 5324SOL     OW17391   2.583   8.022   3.855  0.9521 -0.5194  0.0945
 5324SOL    HW117392   2.487   8.025   3.854  0.9381 -0.5008  1.1904
 5324SOL    HW217393   2.608   8.064   3.772  0.0159 -0.7553 -0.3260
 5325SOL     OW17394   7.981   5.587   3.004 -0.4993 -0.3735  0.1944
 5325SOL    HW117395   8.033   5.668   2.998 -1.6982  0.3220 -1.4857
 5325SOL    HW217396   7.975   5.556   2.914 -2.1004 -1.0099  0.4998
 5326SOL     OW17397   8.020   4.795   4.312 -0.1265  0.1723  0.2699
 5326SOL    HW117398   8.113   4.805   4.331 -0.0648  0.0037  0.0591
 5326SOL    HW217399   8.010   4.702   4.289 -0.7789 -0.4529  2.7297
 5327SOL     OW17400   3.491   7.162   3.341 -0.2020  0.3701 -0.5329
 5327SOL    HW117401   3.507   7.120   3.257  1.1141  0.3039 -0.2627
 5327SOL    HW217402   3.507   7.094   3.406 -1.4747  0.3467 -0.2162
 5328SOL     OW17403   1.444   6.269   7.439  0.4554  0.2310 -0.1227
 5328SOL    HW117404   1.431   6.192   7.494 -0.2133  1.2825  1.2500
 5328SOL    HW217405   1.496   6.238   7.364 -0.2275 -1.6320  0.1508
 5329SOL     OW17406   6.966   4.401   0.579  0.1068  0.5610  0.1817
 5329SOL    HW117407   6.989   4.440   0.494  0.1170  0.9286  0.3526
 5329SOL    HW217408   6.991   4.467   0.643  0.5939  0.0679  0.5117
 5330SOL     OW17409   7.825   3.679   7.381 -0.1322 -0.7505  0.9196
 5330SOL    HW117410   7.855   3.684   7.291 -1.1047  0.1197  0.6170
 5330SOL    HW217411   7.738   3.641   7.376 -1.2180  1.5115  1.1919
 5331SOL     OW17412   2.031   6.492   6.110  0.4392  0.4613  0.2038
 5331SOL    HW117413   1.950   6.543   6.100  0.4624  0.1922 -1.8098
 5331SOL    HW217414   2.020   6.418   6.050  0.6579 -1.6563  2.5869
 5332SOL     OW17415   4.870   7.488   1.863 -0.4325 -0.3273  0.0407
 5332SOL    HW117416   4.869   7.434   1.943  0.4625  0.7610  0.8268
 5332SOL    HW217417   4.960   7.518   1.856 -0.8992  1.0323 -0.3937
 5333SOL     OW17418   7.847   3.997   3.197 -0.5980  0.3780 -0.3040
 5333SOL    HW117419   7.825   3.910   3.230  0.3723 -0.2946 -1.3849
 5333SOL    HW217420   7.819   4.056   3.267 -0.9807 -0.8196  0.5911
 5334SOL     OW17421   3.833   4.221   4.070  0.3694 -0.3501  0.2516
 5334SOL    HW117422   3.833   4.315   4.049 -3.2102  0.0369  1.2561
 5334SOL    HW217423   3.760   4.185   4.019  0.3394 -2.1381  1.4731
 5335SOL     OW17424   3.235   1.169   0.209  0.0704  0.1530 -0.1236
 5335SOL    HW117425   3.301   1.143   0.144 -0.4598  1.8650 -1.4136
 5335SOL    HW217426   3.233   1.096   0.270  0.0678 -1.9432 -2.4332
 5336SOL     OW17427   1.933   0.191   0.090 -0.7612 -0.3379  0.0586
 5336SOL    HW117428   2.000   0.199   0.022  1.2836 -1.1543  1.8398
 5336SOL    HW217429   1.870   0.128   0.056  0.7428 -1.4803 -0.6890
 5337SOL     OW17430   5.740   4.828   1.426  0.2322  0.3420 -0.3006
 5337SOL    HW117431   5.786   4.842   1.509 -0.7411  0.9725  0.1626
 5337SOL    HW217432   5.648   4.848   1.447  0.0701  1.1595 -1.6928
 5338SOL     OW17433   1.445   2.766   0.448 -0.1735 -0.2764 -0.0439
 5338SOL    HW117434   1.465   2.859   0.446 -0.4844 -0.2023  0.1779
 5338SOL    HW217435   1.507   2.729   0.511 -2.0209  0.2911  2.3038
 5339SOL     OW17436   4.834   2.904   6.844 -0.1495  0.2248 -0.7613
 5339SOL    HW117437   4.836   2.963   6.769 -0.7448  1.4783  0.1759
 5339SOL    HW217438   4.925   2.895   6.870 -0.1241  1.4616 -0.3776
 5340SOL     OW17439   2.326   6.433   3.871 -0.2333  0.2133  0.3862
 5340SOL    HW117440   2.393   6.373   3.838 -1.1241 -0.2741 -0.5885
 5340SOL    HW217441   2.261   6.437   3.801 -1.3055  0.5500  1.3723
 5341SOL     OW17442   0.893   6.060   1.988 -0.0699  0.1502 -0.5079
 5341SOL    HW117443   0.848   6.031   2.067 -0.9691 -2.0494 -1.7353
 5341SOL    HW217444   0.965   5.997   1.977 -0.4197 -0.0613 -1.8101
 5342SOL     OW17445   0.476   1.528   1.457  0.2203  0.3659 -0.3037
 5342SOL    HW117446   0.425   1.477   1.520  0.1920 -0.3289 -0.8705
 5342SOL    HW217447   0.431   1.516   1.374  1.2288 -0.1650 -0.7933
 5343SOL     OW17448   7.046   6.327   6.423  0.1610  0.4885  0.0144
 5343SOL    HW117449   7.027   6.378   6.345  1.9420  0.1122 -0.7246
 5343SOL    HW217450   7.086   6.246   6.389  0.8328  0.2609  1.2909
 5344SOL     OW17451   6.094   2.964   7.507  0.3117 -0.5694  0.4149
 5344SOL    HW117452   6.075   2.872   7.490 -0.1786 -0.6126  1.1271
 5344SOL    HW217453   6.014   2.997   7.549 -0.3142  0.7007 -1.6207
 5345SOL     OW17454   6.509   4.985   7.991  0.1550  0.0150 -0.2498
 5345SOL    HW117455   6.473   5.055   7.936 -0.8186 -0.3851 -0.1259
 5345SOL    HW217456   6.604   4.989   7.974  0.1937  1.7198  0.1704
 5346SOL     OW17457   1.943   4.902   8.033 -0.4798  0.4701 -0.2388
 5346SOL    HW117458   1.975   4.938   7.950 -1.0937  2.2228  0.2439
 5346SOL    HW217459   1.855   4.870   8.013  0.0903 -0.8940 -0.6839
 5347SOL     OW17460   4.072   5.193   0.875 -0.1451  0.0616 -0.4878
 5347SOL    HW117461   4.061   5.281   0.912  0.5241  0.5686 -1.4519
 5347SOL    HW217462   4.043   5.202   0.784 -0.2338 -0.7614 -0.5459
 5348SOL     OW17463   0.688   3.849   4.174  0.5321  0.3894 -0.4254
 5348SOL    HW117464   0.600   3.827   4.204  0.4397  1.5094  0.1871
 5348SOL    HW217465   0.679   3.863   4.080 -0.2513  1.8869 -0.1467
 5349SOL     OW17466   3.765   4.165   0.670  0.0967  0.0573  0.1135
 5349SOL    HW117467   3.783   4.071   0.665  0.1526 -0.0966  2.2561
 5349SOL    HW217468   3.851   4.207   0.672  0.1425 -0.0460  1.4371
 5350SOL     OW17469   0.504   3.241   3.504  0.0273 -0.2961 -0.0928
 5350SOL    HW117470   0.525   3.170   3.564  0.2612 -1.8230 -1.8657
 5350SOL    HW217471   0.413   3.263   3.523 -0.4167 -1.8813 -0.2306
 5351SOL     OW17472   0.998   1.776   0.798 -0.8236  0.2277  0.0256
 5351SOL    HW117473   0.980   1.787   0.704 -1.2974 -1.6469 -0.1390
 5351SOL    HW217474   1.090   1.753   0.802 -0.2522  2.3374  0.2384
 5352SOL     OW17475   7.886   7.901   0.436  0.0106  0.0520 -0.4510
 5352SOL    HW117476   7.817   7.838   0.458 -0.2779  0.4992 -0.0527
 5352SOL    HW217477   7.967   7.856   0.458 -0.2569  0.8000  2.6263
 5353SOL     OW17478   4.947   2.239   2.649  0.0862 -0.3263  0.5540
 5353SOL    HW117479   4.954   2.171   2.716 -1.5284 -1.7964 -0.6686
 5353SOL    HW217480   4.880   2.206   2.589  1.0872  1.1726 -1.5011
 5354SOL     OW17481   0.665   0.050   2.363 -0.5955  0.4770 -0.0529
 5354SOL    HW117482   0.627   0.136   2.380 -1.3842  0.1121  0.0889
 5354SOL    HW217483   0.746   0.049   2.414  1.1071  2.2976 -2.4785
 5355SOL     OW17484   5.403   0.823   6.394 -0.7289  0.1836 -0.3653
 5355SOL    HW117485   5.331   0.782   6.442  0.1982 -2.0542 -0.7844
 5355SOL    HW217486   5.439   0.887   6.456  0.7529 -2.9340  2.2365
 5356SOL     OW17487   0.305   4.861   7.246 -0.0438  0.0912  0.1300
 5356SOL    HW117488   0.274   4.915   7.173  1.0308  3.5315  2.0028
 5356SOL    HW217489   0.228   4.849   7.301 -0.2403 -0.0316 -0.1717
 5357SOL     OW17490   4.605   1.675   5.479 -0.4254 -0.1438  0.7638
 5357SOL    HW117491   4.681   1.722   5.513 -0.4588  1.1566 -0.8261
 5357SOL    HW217492   4.623   1.583   5.497  1.7785  0.0797 -0.0079
 5358SOL     OW17493   3.960   5.178   5.420  0.4689 -0.4400 -0.2497
 5358SOL    HW117494   3.951   5.172   5.515  0.2983 -0.7115 -0.2817
 5358SOL    HW217495   4.027   5.114   5.398  0.2504 -0.6369 -0.3508
 5359SOL     OW17496   3.026   4.281   0.731  0.5533 -0.0599  0.0577
 5359SOL    HW117497   3.122   4.287   0.725  0.3959  2.5594 -1.5026
 5359SOL    HW217498   2.998   4.258   0.642 -0.3031  1.3943 -0.0881
 5360SOL     OW17499   3.219   0.409   3.723  0.2991  0.0604  0.1740
 5360SOL    HW117500   3.144   0.417   3.665  1.0768  0.4202 -0.8115
 5360SOL    HW217501   3.225   0.494   3.767  1.1237  0.6610 -1.0281
 5361SOL     OW17502   1.078   4.041   6.716  0.0655 -0.0079 -0.1085
 5361SOL    HW117503   1.107   4.092   6.640  0.3691 -1.2597 -0.8755
 5361SOL    HW217504   1.159   4.002   6.750  0.1408  1.6218  1.7325
 5362SOL     OW17505   2.387   2.353   1.152 -0.1903  0.5892  0.1898
 5362SOL    HW117506   2.304   2.383   1.115 -0.0686  0.7796  0.0681
 5362SOL    HW217507   2.378   2.372   1.246 -1.0660 -1.2058  0.5080
 5363SOL     OW17508   0.341   4.281   6.550  0.3028  0.6694 -1.1914
 5363SOL    HW117509   0.260   4.298   6.598  1.1936 -0.7164  0.9559
 5363SOL    HW217510   0.406   4.338   6.592  1.5076 -1.8824  0.6564
 5364SOL     OW17511   1.007   4.641   3.945  0.1717 -0.4624 -0.1810
 5364SOL    HW117512   0.957   4.698   3.885 -0.7005 -0.2938  0.6813
 5364SOL    HW217513   1.095   4.677   3.944 -0.1503  0.3552 -0.3492
 5365SOL     OW17514   3.758   1.434   5.179  0.1831  0.1833  0.6995
 5365SOL    HW117515   3.722   1.347   5.166  0.1790  0.2723  0.0480
 5365SOL    HW217516   3.723   1.463   5.263 -0.6046 -0.0598  0.4606
 5366SOL     OW17517   7.512   7.724   7.719  0.0491  0.0547 -0.3272
 5366SOL    HW117518   7.514   7.661   7.791 -1.8419 -0.6370 -0.8232
 5366SOL    HW217519   7.491   7.808   7.760 -0.2650 -0.1882  0.0071
 5367SOL     OW17520   6.468   3.046   5.284  0.5096  1.0746  0.5452
 5367SOL    HW117521   6.499   2.957   5.267 -1.8536  0.5637 -1.7161
 5367SOL    HW217522   6.420   3.040   5.367 -0.7966 -0.1272 -0.2661
 5368SOL     OW17523   5.864   3.079   7.671  0.0836 -0.3606 -0.5347
 5368SOL    HW117524   5.810   3.139   7.619 -0.5831 -0.4099  0.0797
 5368SOL    HW217525   5.939   3.132   7.697  0.0192 -0.0999 -0.8739
 5369SOL     OW17526   3.564   1.877   1.858  0.0593 -0.3789 -0.2404
 5369SOL    HW117527   3.580   1.925   1.777  0.7351 -0.0862  0.0495
 5369SOL    HW217528   3.514   1.800   1.832  0.6258 -0.5006 -0.9939
 5370SOL     OW17529   0.167   4.967   5.618  0.3915 -0.0712 -0.0644
 5370SOL    HW117530   0.199   4.933   5.702  0.6766  0.8013  0.1936
 5370SOL    HW217531   0.115   4.895   5.581 -0.6667 -0.0939  1.3682
 5371SOL     OW17532   2.016   3.454   3.041  0.1429 -0.2653  0.1482
 5371SOL    HW117533   1.983   3.370   3.072  0.9561 -0.3237  0.8729
 5371SOL    HW217534   1.944   3.515   3.056 -0.2172 -0.7021  0.2104
 5372SOL     OW17535   6.367   1.430   2.414 -0.1182  0.2691  0.0394
 5372SOL    HW117536   6.355   1.460   2.504 -1.5694  0.2187 -0.1176
 5372SOL    HW217537   6.393   1.338   2.423 -2.9297 -0.5841  0.4169
 5373SOL     OW17538   2.272   7.313   2.188  0.0318  0.3976  0.8557
 5373SOL    HW117539   2.340   7.311   2.256  1.1957  0.4094 -0.2801
 5373SOL    HW217540   2.320   7.304   2.106 -1.2964  1.0833 -0.0194
 5374SOL     OW17541   2.331   7.548   1.562 -0.1598  0.8214  0.2320
 5374SOL    HW117542   2.246   7.531   1.602  0.6360 -0.3501  1.5408
 5374SOL    HW217543   2.366   7.624   1.610 -0.0138  0.6139  0.4577
 5375SOL     OW17544   0.664   2.649   0.787  0.1026  0.8286 -0.4120
 5375SOL    HW117545   0.707   2.567   0.811 -0.4082  0.6790  0.0074
 5375SOL    HW217546   0.701   2.671   0.701  0.4029  0.2780 -0.4287
 5376SOL     OW17547   1.732   2.637   5.038 -0.4515  0.2288  0.2066
 5376SOL    HW117548   1.763   2.665   4.951  0.5737 -2.2259 -0.2888
 5376SOL    HW217549   1.650   2.592   5.021 -0.5149  0.2005  0.5912
 5377SOL     OW17550   5.126   0.068   0.528 -0.0749  0.0455  0.9581
 5377SOL    HW117551   5.152  -0.019   0.558  0.1789  0.1612  1.0797
 5377SOL    HW217552   5.034   0.059   0.502  0.1178 -0.3959  0.4100
 5378SOL     OW17553   1.014   5.697   5.189 -0.1083  0.0984  0.4591
 5378SOL    HW117554   1.048   5.786   5.178 -0.3320  0.5304  2.7171
 5378SOL    HW217555   0.928   5.708   5.230 -1.0499 -1.1302 -1.0824
 5379SOL     OW17556   7.833   4.601   2.163  0.0049 -0.5846  0.0493
 5379SOL    HW117557   7.755   4.657   2.163  0.9233  0.7845 -1.5871
 5379SOL    HW217558   7.798   4.511   2.163 -1.5150 -0.0451  1.2996
 5380SOL     OW17559   6.851   2.280   1.546  0.5784  0.3073  0.3988
 5380SOL    HW117560   6.761   2.292   1.518  1.3014 -0.5718 -2.7387
 5380SOL    HW217561   6.874   2.192   1.517  2.4864  0.5349  1.0268
 5381SOL     OW17562   6.484   6.718   1.130 -0.2516  0.1452  0.1421
 5381SOL    HW117563   6.510   6.699   1.040 -0.8985 -1.2096  0.2165
 5381SOL    HW217564   6.414   6.783   1.121  0.3528  0.7558 -0.2639
 5382SOL     OW17565   6.785   3.130   4.178  0.0388  0.2018  0.5579
 5382SOL    HW117566   6.778   3.036   4.192 -0.5179  0.1469 -0.0116
 5382SOL    HW217567   6.876   3.145   4.153 -0.1577 -0.3637 -0.5565
 5383SOL     OW17568   1.334   3.535   4.819  0.1230 -0.2065 -0.8141
 5383SOL    HW117569   1.315   3.623   4.852  0.3159 -0.4952  0.1066
 5383SOL    HW217570   1.276   3.525   4.743 -0.8377  0.2399 -0.1625
 5384SOL     OW17571   3.109   6.742   2.713 -0.2518  0.5159  0.0479
 5384SOL    HW117572   3.095   6.650   2.735  1.6683  0.0408 -0.4952
 5384SOL    HW217573   3.023   6.774   2.687 -1.4618 -0.4425  2.5297
 5385SOL     OW17574   5.773   0.498   7.459  0.0555 -0.9177 -0.0687
 5385SOL    HW117575   5.760   0.518   7.552  0.1498  0.0973 -0.2661
 5385SOL    HW217576   5.868   0.487   7.450  0.0087 -1.4363  0.0280
 5386SOL     OW17577   0.869   5.572   7.020  0.3708  0.4460  0.2014
 5386SOL    HW117578   0.932   5.599   6.953 -1.0419 -1.6169 -2.1342
 5386SOL    HW217579   0.923   5.540   7.092  1.9885  0.9865 -0.7148
 5387SOL     OW17580   1.851   6.638   7.820 -0.1200 -0.4831  0.4360
 5387SOL    HW117581   1.913   6.711   7.815  1.0856 -1.4660  0.6128
 5387SOL    HW217582   1.888   6.580   7.886 -0.5400 -1.7278 -0.4037
 5388SOL     OW17583   2.085   6.703   4.524 -0.2984 -0.0566  0.1289
 5388SOL    HW117584   2.006   6.653   4.505 -0.1393 -0.8682  1.4696
 5388SOL    HW217585   2.157   6.647   4.493 -0.1023 -0.8642  1.9265
 5389SOL     OW17586   2.689   0.819   6.617  0.0188  0.5124  0.2365
 5389SOL    HW117587   2.668   0.910   6.636  1.4237  0.8035  0.5509
 5389SOL    HW217588   2.610   0.770   6.637 -0.3546  1.5132  1.2587
 5390SOL     OW17589   6.994   7.472   3.588  0.2420 -0.2234  0.6792
 5390SOL    HW117590   6.945   7.515   3.658 -0.2118  0.0458  0.2049
 5390SOL    HW217591   6.969   7.520   3.508  1.6031  0.1905  0.4806
 5391SOL     OW17592   3.186   1.796   1.855 -0.4225  0.1401 -0.2672
 5391SOL    HW117593   3.280   1.783   1.848 -0.3385  0.0239  0.8979
 5391SOL    HW217594   3.170   1.883   1.818  0.3880  0.9076  1.1155
 5392SOL     OW17595   0.856   7.737   5.851  0.1819 -0.0893  0.5922
 5392SOL    HW117596   0.859   7.831   5.868  0.3115  0.0393 -0.0891
 5392SOL    HW217597   0.763   7.720   5.836  0.0511 -0.2286  1.5216
 5393SOL     OW17598   1.051   3.640   6.799  0.0702 -0.0291  0.4050
 5393SOL    HW117599   1.118   3.675   6.740 -0.4470 -0.0107 -0.1781
 5393SOL    HW217600   1.060   3.545   6.792  0.6875 -0.0329  1.0885
 5394SOL     OW17601   5.974   0.689   1.561  0.5907 -0.3358 -0.3569
 5394SOL    HW117602   5.902   0.750   1.576  0.2773 -0.3001 -1.8320
 5394SOL    HW217603   5.976   0.634   1.639  0.0415  0.7216  0.4224
 5395SOL     OW17604   1.413   7.674   1.328  0.3245  0.2117  0.2425
 5395SOL    HW117605   1.435   7.651   1.418 -0.2704 -1.2329  0.0306
 5395SOL    HW217606   1.495   7.667   1.281  0.1140 -1.8396  0.1265
 5396SOL     OW17607   0.811   4.243   1.950 -0.0776 -0.0181  0.3519
 5396SOL    HW117608   0.807   4.188   1.872 -0.9405 -0.4058  0.6675
 5396SOL    HW217609   0.902   4.237   1.978  0.0485 -0.5483 -0.1426
 5397SOL     OW17610   2.636   3.048   0.229 -0.6152 -0.3092 -0.7381
 5397SOL    HW117611   2.730   3.063   0.235 -0.7022  0.1573 -0.5583
 5397SOL    HW217612   2.607   3.108   0.160 -0.4499 -1.9410 -2.3240
 5398SOL     OW17613   6.065   3.455   0.588 -0.3009 -0.1734  0.1565
 5398SOL    HW117614   5.984   3.413   0.618 -0.7710  1.2639  1.0411
 5398SOL    HW217615   6.040   3.546   0.571  1.0221  0.1742 -0.0772
 5399SOL     OW17616   6.843   1.621   5.121 -0.3741 -0.1153  0.2460
 5399SOL    HW117617   6.812   1.532   5.107 -0.8328 -0.1975  1.6344
 5399SOL    HW217618   6.774   1.677   5.087 -0.9488 -0.3062  1.0589
 5400SOL     OW17619   3.585   0.524   3.783 -0.2545 -0.4183 -0.1409
 5400SOL    HW117620   3.608   0.537   3.691  0.7966 -0.9216  0.0357
 5400SOL    HW217621   3.580   0.429   3.793 -0.9392 -0.3532  0.1939
 5401SOL     OW17622   3.938   4.817   7.530 -0.0121  0.3457  0.6015
 5401SOL    HW117623   3.861   4.858   7.491  0.0984  0.2577  0.2911
 5401SOL    HW217624   3.995   4.890   7.552  0.1323  0.3645  0.1602
 5402SOL     OW17625   2.839   6.618   5.660 -0.2239  0.2980  0.4723
 5402SOL    HW117626   2.885   6.698   5.688 -0.1541  1.0463 -1.5953
 5402SOL    HW217627   2.769   6.649   5.603 -1.9346 -0.9914  1.7398
 5403SOL     OW17628   0.056   7.566   6.315 -0.0376 -0.2336 -0.2643
 5403SOL    HW117629   0.015   7.488   6.354  0.8825 -0.9834 -0.7612
 5403SOL    HW217630   0.013   7.576   6.230 -0.2896 -0.0801 -0.1204
 5404SOL     OW17631   5.988   0.675   6.644  0.0755  0.4991  0.2490
 5404SOL    HW117632   6.053   0.687   6.713  0.7046  0.1449 -0.2706
 5404SOL    HW217633   6.006   0.746   6.582 -0.6278  0.9479  0.5547
 5405SOL     OW17634   4.552   7.721   0.558 -0.4988 -0.2678  0.3020
 5405SOL    HW117635   4.593   7.742   0.642  0.1099  1.0840 -0.2931
 5405SOL    HW217636   4.466   7.686   0.581 -0.0083 -0.7386  1.5008
 5406SOL     OW17637   5.526   6.919   0.158 -0.4226 -0.2949  0.2095
 5406SOL    HW117638   5.526   6.992   0.097  1.5471 -1.0863 -0.8268
 5406SOL    HW217639   5.558   6.844   0.106  1.6370 -0.9360  2.2191
 5407SOL     OW17640   7.494   0.576   5.136 -0.0550  0.8471 -0.1219
 5407SOL    HW117641   7.564   0.561   5.199 -0.1004 -1.7935 -0.5825
 5407SOL    HW217642   7.518   0.657   5.092  1.5562  1.1301  1.1927
 5408SOL     OW17643   7.317   3.016   1.450 -0.1728  0.6740 -0.1968
 5408SOL    HW117644   7.343   2.953   1.516  1.4119 -0.0832 -1.4565
 5408SOL    HW217645   7.257   2.968   1.393  0.9933  0.2542 -1.1262
 5409SOL     OW17646   7.363   2.906   0.537  1.2859 -0.3099 -0.6421
 5409SOL    HW117647   7.287   2.863   0.499 -0.9423  0.3250  2.6925
 5409SOL    HW217648   7.438   2.866   0.493 -0.8908 -0.8103 -4.2516
 5410SOL     OW17649   6.038   1.486   1.187  0.3755 -0.4752  0.2150
 5410SOL    HW117650   6.101   1.527   1.128 -0.2683 -0.1471 -0.2625
 5410SOL    HW217651   6.067   1.511   1.274  0.8339 -0.2300 -0.0019
 5411SOL     OW17652   2.094   7.131   1.760  0.6373  0.5122  0.0082
 5411SOL    HW117653   2.018   7.166   1.805  0.4624  2.5311 -1.6922
 5411SOL    HW217654   2.075   7.144   1.667  1.9219 -1.4453 -0.5937
 5412SOL     OW17655   5.212   4.077   6.688  0.2261  0.4794 -0.6024
 5412SOL    HW117656   5.221   4.079   6.593 -0.6927  2.6468 -0.7007
 5412SOL    HW217657   5.118   4.068   6.704  0.5050 -1.6341  0.1698
 5413SOL     OW17658   0.957   2.956   1.108  0.1673  0.0502 -0.2341
 5413SOL    HW117659   0.948   2.861   1.105  2.6149 -0.4387  2.7106
 5413SOL    HW217660   1.013   2.977   1.032  1.6081 -1.2573  0.3987
 5414SOL     OW17661   6.994   5.391   6.566  0.2124 -0.7402  0.2089
 5414SOL    HW117662   6.941   5.449   6.619 -3.0601 -1.6825 -1.7779
 5414SOL    HW217663   7.028   5.326   6.628 -2.0603 -0.8409  1.4315
 5415SOL     OW17664   0.140   2.356   7.251  0.0485  0.7445 -0.3592
 5415SOL    HW117665   0.190   2.431   7.218 -0.8183  1.1082 -0.8670
 5415SOL    HW217666   0.202   2.310   7.308  1.5497  0.2452 -2.2502
 5416SOL     OW17667   6.045   2.262   0.379  0.2013  0.3689 -0.7071
 5416SOL    HW117668   6.108   2.289   0.445 -1.3231  0.4958  0.7554
 5416SOL    HW217669   6.062   2.168   0.367  0.3493  0.2983  0.0218
 5417SOL     OW17670   5.481   7.841   3.538  0.3279  0.1381 -0.2237
 5417SOL    HW117671   5.435   7.919   3.569  1.3400 -0.1315  2.1561
 5417SOL    HW217672   5.573   7.856   3.562  1.2679 -0.1079 -3.2450
 5418SOL     OW17673   5.593   1.180   6.968 -0.4862  0.0228 -0.0189
 5418SOL    HW117674   5.558   1.270   6.967 -0.9817 -0.0656  2.5339
 5418SOL    HW217675   5.676   1.187   6.922 -1.5205  1.2939 -1.8486
 5419SOL     OW17676   0.693   6.820   4.130 -0.2633 -0.0183 -0.3802
 5419SOL    HW117677   0.728   6.865   4.053  1.8626  0.9182  1.0489
 5419SOL    HW217678   0.721   6.873   4.204 -2.8697 -0.4913  1.0717
 5420SOL     OW17679   2.164   6.351   7.325 -0.3968 -0.3446 -0.2266
 5420SOL    HW117680   2.137   6.357   7.416  0.1683  0.8702 -0.1301
 5420SOL    HW217681   2.102   6.406   7.278 -0.8660 -1.1962 -0.6324
 5421SOL     OW17682   2.386   5.848   1.416 -0.0431  0.8708  0.5287
 5421SOL    HW117683   2.435   5.891   1.346  1.1057 -0.7734  0.2502
 5421SOL    HW217684   2.421   5.759   1.418 -0.0804  0.8333  3.1759
 5422SOL     OW17685   0.813   1.823   6.478  0.0545  0.2179 -0.0233
 5422SOL    HW117686   0.886   1.830   6.417  0.0956 -1.1479 -0.1571
 5422SOL    HW217687   0.800   1.729   6.490 -0.8782  0.4472  0.9681
 5423SOL     OW17688   6.583   4.840   3.128 -0.1527  0.1549 -0.3434
 5423SOL    HW117689   6.491   4.826   3.107 -0.5659 -0.5933  1.7237
 5423SOL    HW217690   6.589   4.934   3.149 -0.7714 -0.0478  0.8232
 5424SOL     OW17691   5.663   3.792   1.831  0.0118  0.7980 -0.0748
 5424SOL    HW117692   5.721   3.866   1.812  2.0887 -0.3995  1.2725
 5424SOL    HW217693   5.655   3.746   1.747  0.7861  1.1418 -0.3509
 5425SOL     OW17694   5.820   2.777   2.786  0.1621 -0.3515 -0.6817
 5425SOL    HW117695   5.739   2.727   2.769 -0.2396  0.4319 -1.1654
 5425SOL    HW217696   5.872   2.720   2.842 -0.7012 -0.9060 -0.4149
 5426SOL     OW17697   3.165   1.967   7.822  0.2398  0.1651 -0.3069
 5426SOL    HW117698   3.110   2.038   7.857  0.0289  0.8618 -1.9611
 5426SOL    HW217699   3.247   2.010   7.798  0.7233 -0.4750  0.1753
 5427SOL     OW17700   5.797   6.204   1.829 -0.1505  0.0956  0.2519
 5427SOL    HW117701   5.774   6.279   1.774 -1.5100  2.1434  3.3454
 5427SOL    HW217702   5.713   6.160   1.844 -0.1276  0.5371  1.8836
 5428SOL     OW17703   7.462   3.955   3.551 -0.5344 -0.7624  0.0333
 5428SOL    HW117704   7.475   3.932   3.643 -0.5508 -0.7641  0.0353
 5428SOL    HW217705   7.525   3.901   3.504  1.4727  1.2475  0.2566
 5429SOL     OW17706   0.878   5.167   3.365 -0.3461  0.0334 -0.6629
 5429SOL    HW117707   0.842   5.084   3.397 -1.8233  0.6565 -0.5901
 5429SOL    HW217708   0.878   5.158   3.270  1.0333 -0.6306 -0.6231
 5430SOL     OW17709   5.257   0.029   3.644  0.4568  0.7880  0.1500
 5430SOL    HW117710   5.199  -0.047   3.647 -0.3847  1.3897 -0.4026
 5430SOL    HW217711   5.260   0.061   3.734  1.1611 -0.1348  0.4722
 5431SOL     OW17712   4.635   6.689   6.523 -0.5637  0.0732  0.6988
 5431SOL    HW117713   4.626   6.658   6.613  0.1802 -1.0952  0.3970
 5431SOL    HW217714   4.610   6.613   6.469 -0.1963  0.4904 -0.0734
 5432SOL     OW17715   2.865   2.454   0.160 -0.7350 -0.9972 -0.0552
 5432SOL    HW117716   2.824   2.387   0.216 -0.5762 -0.4214  0.7775
 5432SOL    HW217717   2.959   2.440   0.170 -0.6547  0.3168  1.3897
 5433SOL     OW17718   3.904   6.278   4.999  0.2340  0.2568  0.0146
 5433SOL    HW117719   3.889   6.304   4.908 -0.4897 -0.3407 -0.0517
 5433SOL    HW217720   3.820   6.242   5.027  0.6288 -0.1215  0.7327
 5434SOL     OW17721   1.931   6.132   1.147  0.1453  0.4485  0.3813
 5434SOL    HW117722   1.996   6.078   1.191  0.1017 -0.6918 -0.8809
 5434SOL    HW217723   1.891   6.184   1.217 -0.8903 -2.2773  1.9645
 5435SOL     OW17724   7.369   1.626   7.113  0.1784  0.0508 -0.2604
 5435SOL    HW117725   7.326   1.704   7.150  1.8387  1.5309 -1.2999
 5435SOL    HW217726   7.427   1.596   7.183  1.7969  1.6230 -0.8669
 5436SOL     OW17727   3.364   6.726   2.823  0.2855  0.2123  0.2872
 5436SOL    HW117728   3.272   6.751   2.815 -0.7562 -3.1436  0.0906
 5436SOL    HW217729   3.397   6.724   2.733  0.0560 -0.2078  0.2136
 5437SOL     OW17730   4.811   4.969   2.796  0.3540  0.3044 -0.0722
 5437SOL    HW117731   4.898   4.993   2.831  0.7324  0.2677 -0.9695
 5437SOL    HW217732   4.756   4.963   2.874  0.9195  1.3124  0.4375
 5438SOL     OW17733   7.106   2.601   4.051  0.0362  0.3819 -0.1395
 5438SOL    HW117734   7.034   2.652   4.015 -0.2961 -1.2724 -1.9535
 5438SOL    HW217735   7.181   2.661   4.049 -0.9209  1.6465  0.3781
 5439SOL     OW17736   3.087   2.916   1.150 -0.2011  0.2542  0.1273
 5439SOL    HW117737   3.057   2.841   1.200 -3.5041  0.2240 -1.6312
 5439SOL    HW217738   3.082   2.888   1.059 -2.5659  2.7975 -0.6676
 5440SOL     OW17739   5.053   0.868   4.452  0.1127 -0.0254 -0.2392
 5440SOL    HW117740   5.057   0.873   4.548  0.8638  0.1484 -0.2733
 5440SOL    HW217741   5.105   0.791   4.430  0.7166  0.4615 -0.5559
 5441SOL     OW17742   2.567   2.021   1.521 -0.0025 -0.1747  0.5064
 5441SOL    HW117743   2.500   1.957   1.545 -0.1188  0.0601  0.7991
 5441SOL    HW217744   2.604   2.050   1.604 -1.2109  1.5155  0.4980
 5442SOL     OW17745   5.094   7.335   6.041  0.0430 -0.7203  0.3387
 5442SOL    HW117746   5.004   7.303   6.044  0.5457 -2.2347  0.0031
 5442SOL    HW217747   5.089   7.417   5.993 -0.9552 -1.5100 -0.9533
 5443SOL     OW17748   2.214   1.350   3.556  0.1214 -0.2998 -0.0773
 5443SOL    HW117749   2.155   1.424   3.544 -0.5075 -0.6637  0.6913
 5443SOL    HW217750   2.296   1.378   3.516 -0.1962  0.6903 -0.0618
 5444SOL     OW17751   7.403   7.967   5.954  0.0080 -0.5389  0.0382
 5444SOL    HW117752   7.310   7.949   5.939 -0.1696  1.7093 -2.0979
 5444SOL    HW217753   7.442   7.969   5.867  1.8614 -0.4071  0.8264
 5445SOL     OW17754   0.227   6.167   4.109 -0.1993  0.6354 -0.0442
 5445SOL    HW117755   0.194   6.244   4.064 -0.8358 -0.4050 -1.4114
 5445SOL    HW217756   0.309   6.146   4.064 -0.0930  0.4296  0.2384
 5446SOL     OW17757   4.287   6.337   4.751 -0.6259 -0.5260  0.5090
 5446SOL    HW117758   4.328   6.418   4.721  1.1082 -1.3945  0.4753
 5446SOL    HW217759   4.209   6.328   4.696 -0.4851  0.7562  0.0707
 5447SOL     OW17760   0.488   6.473   2.225 -0.1681  0.2424 -0.1732
 5447SOL    HW117761   0.565   6.459   2.281 -1.1891  0.0006  1.2263
 5447SOL    HW217762   0.524   6.477   2.137  1.3574 -0.8260  0.3375
 5448SOL     OW17763   7.259   2.199   7.135  0.9513  0.5813 -0.2865
 5448SOL    HW117764   7.270   2.114   7.093  1.0882  1.0327 -1.2099
 5448SOL    HW217765   7.178   2.191   7.186  1.0886 -0.1675 -0.1804
 5449SOL     OW17766   1.422   4.047   1.581 -0.0112 -0.0331 -0.2183
 5449SOL    HW117767   1.435   4.127   1.529 -0.3017  0.6049  0.6729
 5449SOL    HW217768   1.345   4.066   1.635 -0.0168 -0.8778  0.0770
 5450SOL     OW17769   4.417   7.266   6.035 -0.1199 -0.0894  0.1505
 5450SOL    HW117770   4.380   7.349   6.006  0.6588  0.6113  1.0529
 5450SOL    HW217771   4.359   7.237   6.106 -0.0183  0.0411  0.2894
 5451SOL     OW17772   6.685   0.730   6.544  0.0448  0.0768 -0.0337
 5451SOL    HW117773   6.770   0.721   6.501  0.7812  1.3728  1.0624
 5451SOL    HW217774   6.674   0.824   6.556 -1.6656 -0.0516 -0.3420
 5452SOL     OW17775   7.898   5.613   0.914  0.0529 -0.2266 -0.0367
 5452SOL    HW117776   7.877   5.530   0.872 -0.3033  0.4405 -1.2248
 5452SOL    HW217777   7.992   5.609   0.931 -0.0796 -1.1327  0.5444
 5453SOL     OW17778   8.031   6.285   2.175 -0.0117  0.8007  0.2631
 5453SOL    HW117779   8.101   6.285   2.241  0.6068 -0.1866 -0.3628
 5453SOL    HW217780   7.996   6.374   2.177 -0.1085  0.7611  2.0319
 5454SOL     OW17781   7.934   0.207   4.450 -0.3797 -0.8327  0.5800
 5454SOL    HW117782   8.010   0.154   4.474  0.3552 -0.6716 -1.2543
 5454SOL    HW217783   7.867   0.184   4.515  0.2603 -3.2165  0.4753
 5455SOL     OW17784   2.730   8.036   4.293 -0.0067 -0.4869 -0.5179
 5455SOL    HW117785   2.745   8.041   4.199 -1.0315 -0.6027 -0.6934
 5455SOL    HW217786   2.682   7.955   4.306 -0.3044 -0.2308  0.0451
 5456SOL     OW17787   6.198   1.863   0.512 -0.2684 -0.4132  0.2653
 5456SOL    HW117788   6.120   1.918   0.500 -0.3521 -0.4731  0.5486
 5456SOL    HW217789   6.184   1.790   0.451  0.3577  0.4278 -0.9368
 5457SOL     OW17790   5.667   2.392   4.736  0.3063 -0.2013  0.1559
 5457SOL    HW117791   5.676   2.409   4.830  0.6140  0.3299  0.0348
 5457SOL    HW217792   5.621   2.469   4.703 -1.2638 -1.1163  0.1255
 5458SOL     OW17793   4.792   6.864   4.271 -0.0733  0.1986  0.0277
 5458SOL    HW117794   4.786   6.769   4.283 -1.5195  0.4743  1.9739
 5458SOL    HW217795   4.880   6.878   4.236  0.3116 -1.8165  0.0743
 5459SOL     OW17796   0.781   1.540   4.422 -0.2750  0.0284  0.0976
 5459SOL    HW117797   0.719   1.468   4.434 -1.1918  0.7027 -0.4648
 5459SOL    HW217798   0.752   1.584   4.342  1.7685 -0.4627 -0.9675
 5460SOL     OW17799   5.789   7.225   2.229 -0.2090 -0.2192 -0.3526
 5460SOL    HW117800   5.742   7.198   2.150 -1.4387 -0.9873  0.6098
 5460SOL    HW217801   5.791   7.146   2.284 -0.3697  0.5797  0.8478
 5461SOL     OW17802   4.006   1.102   3.500  0.6058 -1.2408 -0.8244
 5461SOL    HW117803   4.017   1.059   3.415 -2.2670  0.4742 -2.2208
 5461SOL    HW217804   3.959   1.037   3.553  1.0589 -1.7630 -1.0501
 5462SOL     OW17805   2.054   3.556   2.521  0.5315 -0.3355 -0.2064
 5462SOL    HW117806   2.078   3.612   2.448 -0.4825 -0.3681 -0.5770
 5462SOL    HW217807   2.019   3.476   2.480 -0.7061 -0.0714  0.2820
 5463SOL     OW17808   2.078   5.893   1.945 -0.0833 -0.2439 -0.0874
 5463SOL    HW117809   2.058   5.971   1.892 -0.3454  1.3090  2.1579
 5463SOL    HW217810   2.128   5.836   1.886  0.6754  1.9028 -1.6455
 5464SOL     OW17811   2.036   7.399   1.353  0.4420 -0.1268  0.1205
 5464SOL    HW117812   1.953   7.416   1.399  0.7071 -0.0632  0.5876
 5464SOL    HW217813   2.074   7.486   1.339  0.4677 -0.1609 -0.0219
 5465SOL     OW17814   6.842   0.702   0.996  0.0164  0.2892  0.2564
 5465SOL    HW117815   6.756   0.702   0.955  0.0607  0.5424  0.1624
 5465SOL    HW217816   6.894   0.639   0.945  0.0893  0.6442 -0.1147
 5466SOL     OW17817   4.866   4.723   3.381  0.1415  0.2659  0.1802
 5466SOL    HW117818   4.933   4.788   3.361  0.1982 -0.1895 -1.1895
 5466SOL    HW217819   4.809   4.723   3.304  0.1353 -1.2876  0.1543
 5467SOL     OW17820   1.068   3.907   0.652  0.4578 -0.5404  0.1640
 5467SOL    HW117821   1.075   3.835   0.715  1.4654 -0.7727 -0.1979
 5467SOL    HW217822   0.976   3.906   0.625  0.2662 -1.1373  0.7958
 5468SOL     OW17823   6.534   0.962   3.290 -0.6467  0.3653 -0.3918
 5468SOL    HW117824   6.575   0.878   3.313 -0.3508  0.6049 -0.0372
 5468SOL    HW217825   6.540   1.014   3.370 -1.3505  0.5200 -0.4352
 5469SOL     OW17826   3.340   3.842   6.074  0.2078 -0.2272 -0.2860
 5469SOL    HW117827   3.299   3.858   5.989 -1.3316 -1.8291  0.1082
 5469SOL    HW217828   3.315   3.917   6.128 -0.8704 -0.3891 -0.5436
 5470SOL     OW17829   0.857   1.994   5.233 -0.4561  0.0794  0.1217
 5470SOL    HW117830   0.910   2.063   5.192 -1.1535  0.2616 -0.5070
 5470SOL    HW217831   0.900   1.977   5.316 -1.1014  2.3487  0.9971
 5471SOL     OW17832   0.089   7.397   6.994  0.0674  0.3803 -0.4572
 5471SOL    HW117833   0.042   7.349   6.926 -0.7693  0.7360 -0.1397
 5471SOL    HW217834   0.028   7.465   7.022  0.8235  0.9415 -0.1257
 5472SOL     OW17835   6.144   7.472   2.475 -0.4529 -0.0230 -0.1538
 5472SOL    HW117836   6.120   7.400   2.417  0.2726 -3.3408  3.2325
 5472SOL    HW217837   6.060   7.513   2.498 -0.7993  0.9342 -2.8265
 5473SOL     OW17838   6.606   6.097   7.393 -0.3132 -0.2934 -0.3172
 5473SOL    HW117839   6.628   6.190   7.398  1.1859 -0.3825 -3.0348
 5473SOL    HW217840   6.644   6.058   7.471  0.4441  1.1506  0.0593
 5474SOL     OW17841   5.549   6.979   1.373  0.6025  0.3526 -0.0221
 5474SOL    HW117842   5.521   6.894   1.406 -0.3637  0.7289  0.1522
 5474SOL    HW217843   5.639   6.965   1.342  1.0288 -0.3414  1.4605
 5475SOL     OW17844   0.940   2.040   7.829  0.9423 -0.2170  0.1689
 5475SOL    HW117845   0.917   1.960   7.783  0.2220  0.3966 -0.5753
 5475SOL    HW217846   0.888   2.039   7.909 -1.2996  0.8281 -1.1695
 5476SOL     OW17847   0.651   7.550   7.758  0.0253  0.3556  0.3379
 5476SOL    HW117848   0.709   7.473   7.759 -1.0473 -0.4967 -0.4337
 5476SOL    HW217849   0.691   7.611   7.819  2.0899  0.0562 -0.6197
 5477SOL     OW17850   6.322   2.972   6.404  0.2743  0.0930  0.0228
 5477SOL    HW117851   6.362   2.959   6.318  0.5132 -0.5405  0.2257
 5477SOL    HW217852   6.393   3.006   6.458  0.4337 -0.6059  0.2652
 5478SOL     OW17853   0.780   5.148   5.631 -0.1259  0.2275  0.4293
 5478SOL    HW117854   0.808   5.116   5.717  0.7575 -1.2713 -0.3829
 5478SOL    HW217855   0.852   5.203   5.601  0.2641 -0.4765  0.0270
 5479SOL     OW17856   3.409   4.567   3.438  0.3729 -0.6942 -0.1026
 5479SOL    HW117857   3.409   4.472   3.450  2.0504 -0.6336  0.7693
 5479SOL    HW217858   3.317   4.592   3.438 -0.1464 -2.4256 -1.4186
 5480SOL     OW17859   0.190   2.776   5.277  0.3526  0.2110  0.2628
 5480SOL    HW117860   0.270   2.755   5.230  0.3410  0.0801  0.3023
 5480SOL    HW217861   0.182   2.871   5.269  0.1092  0.1411 -0.3944
 5481SOL     OW17862   5.499   0.781   2.705  0.0098 -0.2655  0.1699
 5481SOL    HW117863   5.462   0.759   2.790 -1.4731  0.4434 -0.2674
 5481SOL    HW217864   5.525   0.696   2.668  0.9945 -0.5493  1.4422
 5482SOL     OW17865   5.218   3.674   2.220  0.2773 -0.1465  0.1230
 5482SOL    HW117866   5.124   3.669   2.241  0.2932  0.6992  0.4579
 5482SOL    HW217867   5.220   3.679   2.124  0.0157 -0.8009  0.0798
 5483SOL     OW17868   2.884   6.834   5.023 -0.2471 -0.2022  0.6090
 5483SOL    HW117869   2.876   6.806   4.932  1.6400  0.8954  0.0423
 5483SOL    HW217870   2.976   6.819   5.045 -0.0791  1.8254  1.5194
 5484SOL     OW17871   7.887   0.002   0.010 -0.2381  0.4845  0.0106
 5484SOL    HW117872   7.976  -0.028  -0.006  0.0414  0.8007  0.9177
 5484SOL    HW217873   7.833  -0.053  -0.046  0.5073  0.1552 -0.4021
 5485SOL     OW17874   0.409   0.079   1.388 -0.1931  0.1174 -0.2306
 5485SOL    HW117875   0.347   0.095   1.459 -0.0654 -0.1720 -0.0468
 5485SOL    HW217876   0.494   0.105   1.424 -0.2060  0.4851 -0.4705
 5486SOL     OW17877   8.005   7.348   4.759 -0.0988 -0.6214 -0.1092
 5486SOL    HW117878   8.070   7.328   4.692 -0.6056 -1.2327 -0.4360
 5486SOL    HW217879   8.032   7.296   4.835  0.0339 -0.5460 -0.1058
 5487SOL     OW17880   1.905   7.179   3.810  0.3302  0.3144  0.5803
 5487SOL    HW117881   1.954   7.186   3.892  1.6536  0.9476 -0.2301
 5487SOL    HW217882   1.968   7.143   3.747 -0.2800  0.9721 -0.4456
 5488SOL     OW17883   0.562   4.714   0.721 -0.0462  0.1293  0.1626
 5488SOL    HW117884   0.594   4.633   0.762  1.9062  1.1624  0.8315
 5488SOL    HW217885   0.571   4.699   0.627 -1.8733 -1.2235  0.1466
 5489SOL     OW17886   4.900   1.568   2.607 -0.1583 -0.1905 -0.2330
 5489SOL    HW117887   4.931   1.506   2.673  0.1707  0.4327  0.2128
 5489SOL    HW217888   4.812   1.539   2.586 -0.3712 -0.2455  0.6849
 5490SOL     OW17889   2.858   0.634   3.177  0.2735  0.5781  0.3828
 5490SOL    HW117890   2.940   0.679   3.197 -0.0830  1.1597  0.5631
 5490SOL    HW217891   2.790   0.685   3.222 -0.4385  1.3080 -1.4191
 5491SOL     OW17892   6.081   4.445   2.282 -0.1755 -0.4926 -0.1401
 5491SOL    HW117893   6.108   4.528   2.321  1.1970 -0.3165 -1.3759
 5491SOL    HW217894   6.149   4.383   2.310  0.8814 -0.3457 -2.2142
 5492SOL     OW17895   3.030   1.834   4.809  0.3138  0.1436 -0.5512
 5492SOL    HW117896   3.092   1.765   4.790  0.3013 -0.0865  0.1874
 5492SOL    HW217897   3.065   1.877   4.887 -1.4165 -1.2501  1.1156
 5493SOL     OW17898   5.406   2.858   3.198 -0.0602 -0.1591 -0.4247
 5493SOL    HW117899   5.325   2.833   3.153 -0.4857 -0.2512  0.3710
 5493SOL    HW217900   5.475   2.812   3.150 -0.4790 -0.1124 -1.0870
 5494SOL     OW17901   0.283   7.203   0.878 -0.0508 -0.6237  0.0794
 5494SOL    HW117902   0.307   7.119   0.838 -0.7800 -1.4191  1.2557
 5494SOL    HW217903   0.339   7.267   0.834  0.0227 -1.6130 -1.3479
 5495SOL     OW17904   4.063   1.975   6.443  0.2788  0.6168 -0.3346
 5495SOL    HW117905   3.974   1.994   6.415 -0.1379 -0.8523 -0.0887
 5495SOL    HW217906   4.060   1.984   6.539  0.1080 -0.4964 -0.2275
 5496SOL     OW17907   5.651   8.020   2.707  0.4409  0.3558  0.0465
 5496SOL    HW117908   5.686   8.001   2.620  2.1090  0.6780  0.5969
 5496SOL    HW217909   5.699   8.099   2.735 -0.3986  0.5246  1.0703
 5497SOL     OW17910   6.901   5.579   5.062 -0.0950 -0.1639 -0.2407
 5497SOL    HW117911   6.934   5.607   4.977  0.7171 -1.8447 -0.5120
 5497SOL    HW217912   6.807   5.565   5.048  0.0578 -0.5483 -0.9069
 5498SOL     OW17913   5.152   0.931   2.206 -0.5844  0.2839 -0.2695
 5498SOL    HW117914   5.141   0.987   2.129  0.0153  1.9890  0.8270
 5498SOL    HW217915   5.081   0.958   2.265 -1.3450 -1.3541 -0.3786
 5499SOL     OW17916   2.020   7.736   4.932 -0.3103 -0.6960  0.4777
 5499SOL    HW117917   2.021   7.812   4.991  2.2856  0.2845 -0.6532
 5499SOL    HW217918   1.948   7.753   4.872 -0.0293  0.7220  0.4990
 5500SOL     OW17919   0.546   0.066   3.567  0.9883  0.3842 -0.6336
 5500SOL    HW117920   0.596   0.112   3.635  2.3703 -1.6045 -0.2045
 5500SOL    HW217921   0.611   0.047   3.500  0.1365  0.2535 -1.4266
 5501SOL     OW17922   7.597   2.251   1.093 -0.0422 -0.1264  0.3069
 5501SOL    HW117923   7.582   2.312   1.166 -0.0126  0.1693  0.0676
 5501SOL    HW217924   7.589   2.164   1.133  0.1203  0.0332  0.6931
 5502SOL     OW17925   4.508   3.736   2.037  0.6627 -0.1743  0.6257
 5502SOL    HW117926   4.484   3.795   2.108  0.6106 -0.0653  0.5173
 5502SOL    HW217927   4.442   3.751   1.970  0.5243 -0.5063  0.6820
 5503SOL     OW17928   2.571   3.508   5.027 -0.1425  0.0646 -0.5295
 5503SOL    HW117929   2.493   3.554   4.993 -0.6058  1.6374  2.3328
 5503SOL    HW217930   2.643   3.569   5.011 -0.4675  1.1171  1.6691
 5504SOL     OW17931   1.904   2.182   7.464 -0.8184  0.2937 -0.1504
 5504SOL    HW117932   1.944   2.175   7.378 -0.3016 -0.5372  0.1461
 5504SOL    HW217933   1.975   2.210   7.522 -1.2612  1.2681 -0.0590
 5505SOL     OW17934   5.933   1.867   6.607  0.3175  0.1370  0.2869
 5505SOL    HW117935   5.842   1.876   6.635  0.4564 -1.0860  1.1696
 5505SOL    HW217936   5.979   1.835   6.684  0.9748 -2.0069 -0.9319
 5506SOL     OW17937   5.942   1.361   0.374  0.3660  0.4105  0.8284
 5506SOL    HW117938   6.037   1.345   0.373  0.5324  0.6197 -3.2935
 5506SOL    HW217939   5.934   1.455   0.361 -0.2881  0.1236 -1.1968
 5507SOL     OW17940   2.053   6.028   3.293 -0.0518  0.0403 -0.0166
 5507SOL    HW117941   2.118   5.961   3.315 -0.7451 -0.5276  0.3426
 5507SOL    HW217942   2.105   6.104   3.265  0.7428 -0.6515 -0.4590
 5508SOL     OW17943   5.074   6.028   7.788 -0.0209  0.2984 -0.1561
 5508SOL    HW117944   5.068   6.061   7.699 -0.7451  0.5723 -0.0134
 5508SOL    HW217945   5.059   6.105   7.843 -0.1985  0.0162  0.1948
 5509SOL     OW17946   0.155   4.424   6.731  0.2412 -0.7465  0.4319
 5509SOL    HW117947   0.130   4.515   6.716 -0.3939 -0.4695  2.7594
 5509SOL    HW217948   0.075   4.383   6.765  1.1410 -1.5467  1.6576
 5510SOL     OW17949   5.211   1.316   3.662  0.2331 -0.4182  0.0364
 5510SOL    HW117950   5.148   1.305   3.734  0.9177 -0.3649  0.6540
 5510SOL    HW217951   5.190   1.244   3.602 -1.0336  0.1537 -0.2475
 5511SOL     OW17952   6.206   6.937   6.905  0.4291 -0.0678 -0.0124
 5511SOL    HW117953   6.284   6.967   6.950  1.5568 -2.6692 -0.0821
 5511SOL    HW217954   6.231   6.854   6.866 -2.5095 -1.2373  0.3509
 5512SOL     OW17955   7.253   7.218   4.898 -0.6081 -0.5979 -0.0275
 5512SOL    HW117956   7.319   7.244   4.961 -0.9514  1.8837 -0.5686
 5512SOL    HW217957   7.202   7.150   4.942 -0.2212  0.3450  1.9809
 5513SOL     OW17958   6.242   5.948   3.059 -0.3688 -0.6553  0.4738
 5513SOL    HW117959   6.237   6.034   3.101 -1.7106 -1.5265  2.2655
 5513SOL    HW217960   6.330   5.944   3.022  0.4693  0.7117  2.1564
 5514SOL     OW17961   1.449   2.693   6.873 -0.4073 -0.0127 -0.7984
 5514SOL    HW117962   1.456   2.654   6.960  1.7186 -1.5652 -1.5822
 5514SOL    HW217963   1.366   2.659   6.838 -0.5275 -0.6079  0.0441
 5515SOL     OW17964   7.990   1.707   3.977  0.0618  0.4625  0.1653
 5515SOL    HW117965   7.948   1.626   4.007  1.6172 -0.4545  0.0102
 5515SOL    HW217966   8.017   1.751   4.057  1.1404 -0.2721  0.2258
 5516SOL     OW17967   4.157   5.705   1.290 -0.3084 -0.2040  0.3342
 5516SOL    HW117968   4.063   5.693   1.274 -0.3601 -0.5897  0.9236
 5516SOL    HW217969   4.185   5.764   1.219 -0.5416 -1.8268 -1.1730
 5517SOL     OW17970   5.891   1.558   1.651 -0.1010  0.2640  0.1067
 5517SOL    HW117971   5.838   1.623   1.699  0.0154 -1.0143  2.1040
 5517SOL    HW217972   5.941   1.513   1.720 -0.9960 -2.6858 -1.0282
 5518SOL     OW17973   7.153   6.633   1.953  0.3179 -0.2222  0.1508
 5518SOL    HW117974   7.073   6.682   1.934 -0.0146 -1.1254 -0.9425
 5518SOL    HW217975   7.186   6.670   2.035 -0.9530  0.4895  0.3632
 5519SOL     OW17976   2.950   3.181   0.552  0.0505 -0.0930  0.1221
 5519SOL    HW117977   2.957   3.202   0.459  2.1576  0.0264  0.2666
 5519SOL    HW217978   2.908   3.258   0.590  1.9714  1.2478 -0.3180
 5520SOL     OW17979   6.914   1.339   2.176 -0.5195  0.7122  0.8659
 5520SOL    HW117980   6.954   1.332   2.262  0.0908  0.8206  0.5926
 5520SOL    HW217981   6.886   1.249   2.156  2.0560  0.0324 -0.1064
 5521SOL     OW17982   2.938   1.211   3.286  0.2592 -0.4750 -0.6199
 5521SOL    HW117983   3.016   1.201   3.231  1.2052  2.8373 -0.0909
 5521SOL    HW217984   2.970   1.198   3.375  0.7277  2.4740 -0.2485
 5522SOL     OW17985   6.040   1.012   0.274  0.1204 -0.4804  0.2622
 5522SOL    HW117986   6.035   1.076   0.203 -1.0377 -2.2406 -1.3691
 5522SOL    HW217987   6.091   1.055   0.343 -0.2638  1.9915 -0.8961
 5523SOL     OW17988   3.696   0.442   2.395  0.0906  0.2001  0.3561
 5523SOL    HW117989   3.688   0.408   2.306 -0.3811 -2.4702  1.3279
 5523SOL    HW217990   3.606   0.440   2.429 -0.0276  2.8973  0.3835
 5524SOL     OW17991   1.672   5.067   1.249  0.4214  0.1361  0.0619
 5524SOL    HW117992   1.694   5.119   1.326  1.1452  0.5343 -0.4082
 5524SOL    HW217993   1.586   5.099   1.223  0.1124 -0.0853  0.7675
 5525SOL     OW17994   3.029   2.854   6.228 -0.1776 -0.7966  0.7557
 5525SOL    HW117995   2.992   2.808   6.303 -0.7962  0.5518  1.3264
 5525SOL    HW217996   2.978   2.935   6.222  0.6568 -0.3172 -0.3847
 5526SOL     OW17997   0.600   3.280   0.999 -0.2248  0.1002 -0.6820
 5526SOL    HW117998   0.675   3.331   1.031 -1.0334  0.7664  0.2390
 5526SOL    HW217999   0.611   3.194   1.039 -0.4832  0.5088  0.2973
 5527SOL     OW18000   1.235   7.612   7.451 -0.3759  0.2757 -0.2981
 5527SOL    HW118001   1.296   7.684   7.466 -0.4027  0.1890  0.2400
 5527SOL    HW218002   1.151   7.644   7.483 -0.6479  0.4387 -1.1441
 5528SOL     OW18003   1.648   6.312   5.139 -0.3799  0.2921  0.3265
 5528SOL    HW118004   1.638   6.329   5.045  0.4698  0.8967  0.3225
 5528SOL    HW218005   1.718   6.372   5.166  1.1773 -1.6175  0.8254
 5529SOL     OW18006   5.389   6.497   4.853 -0.5553 -0.4678 -0.0105
 5529SOL    HW118007   5.386   6.591   4.834 -0.5801 -0.5919 -0.6246
 5529SOL    HW218008   5.388   6.455   4.767  1.1820 -0.9875  0.1979
 5530SOL     OW18009   1.813   1.107   4.351  0.2131 -0.1441 -0.4974
 5530SOL    HW118010   1.812   1.036   4.287 -0.0738 -0.4511 -0.1608
 5530SOL    HW218011   1.730   1.153   4.337 -0.2952 -0.7976  0.2887
 5531SOL     OW18012   0.146   3.438   0.693  0.4207 -0.2929 -0.1158
 5531SOL    HW118013   0.202   3.516   0.685 -0.9337  0.6396 -1.0811
 5531SOL    HW218014   0.089   3.443   0.617 -0.5611 -1.5459  0.5128
 5532SOL     OW18015   0.184   4.139   7.132 -0.0440 -0.0515 -0.0662
 5532SOL    HW118016   0.240   4.199   7.083  0.3997 -0.3147  0.1184
 5532SOL    HW218017   0.166   4.067   7.071 -1.3784  0.7189 -0.6323
 5533SOL     OW18018   6.065   5.740   5.778  0.6281 -0.2128 -0.0927
 5533SOL    HW118019   6.053   5.695   5.695  1.6166  1.0120 -0.9281
 5533SOL    HW218020   6.133   5.691   5.824  1.6416  0.3415 -0.9637
 5534SOL     OW18021   7.537   3.247   8.045  0.4576 -0.3366 -0.6213
 5534SOL    HW118022   7.483   3.256   8.123  1.0075 -1.0308 -0.1456
 5534SOL    HW218023   7.624   3.276   8.072  0.6547 -0.5903 -0.9670
 5535SOL     OW18024   5.474   3.250   7.210  0.7877  0.6578 -0.3307
 5535SOL    HW118025   5.395   3.300   7.228  0.8329 -0.0739  2.3377
 5535SOL    HW218026   5.538   3.315   7.182  0.3058  1.8305  1.1874
 5536SOL     OW18027   4.510   5.112   2.784  0.0633  0.5101 -0.6598
 5536SOL    HW118028   4.529   5.155   2.867 -0.3456  1.7982 -1.2102
 5536SOL    HW218029   4.473   5.027   2.809  0.1950  0.7689  0.4635
 5537SOL     OW18030   1.805   4.875   5.116 -0.2831 -0.5384 -0.4085
 5537SOL    HW118031   1.747   4.849   5.188  0.7618 -1.5547  0.1102
 5537SOL    HW218032   1.774   4.825   5.041  0.5648 -1.9755  0.1392
 5538SOL     OW18033   0.291   3.553   6.649 -0.1742 -0.0368  0.3497
 5538SOL    HW118034   0.378   3.557   6.691 -0.8832  1.0917  1.8042
 5538SOL    HW218035   0.249   3.477   6.689  0.6537 -1.5294 -1.4897
 5539SOL     OW18036   6.382   6.700   1.479  0.0125 -0.2367  0.2727
 5539SOL    HW118037   6.356   6.663   1.563  0.0787 -1.2780 -0.1507
 5539SOL    HW218038   6.328   6.653   1.415 -2.4927  2.7712 -0.0922
 5540SOL     OW18039   1.744   1.415   0.264 -0.1676  0.0149  0.0888
 5540SOL    HW118040   1.720   1.485   0.204 -2.1480  0.0817  0.8909
 5540SOL    HW218041   1.670   1.354   0.261  1.3168 -1.8954 -0.2968
 5541SOL     OW18042   3.507   2.765   4.521  0.6291  0.2830  0.5928
 5541SOL    HW118043   3.488   2.714   4.600 -2.1288  0.4469  0.1100
 5541SOL    HW218044   3.482   2.854   4.542 -1.4387  0.1021 -0.8318
 5542SOL     OW18045   1.401   3.745   6.548 -0.1761 -0.5871 -0.6544
 5542SOL    HW118046   1.328   3.799   6.578  0.2131  0.1870 -1.0612
 5542SOL    HW218047   1.359   3.670   6.505 -0.7278 -0.4598 -0.3445
 5543SOL     OW18048   4.480   5.229   2.521  0.2033 -0.2041 -0.1759
 5543SOL    HW118049   4.416   5.178   2.473  0.3680 -0.2851 -0.3110
 5543SOL    HW218050   4.477   5.194   2.610 -0.6486  0.4609  0.0657
 5544SOL     OW18051   4.548   0.877   7.249 -0.2791 -0.1032  0.0493
 5544SOL    HW118052   4.538   0.879   7.345  1.7529  1.3652  0.3035
 5544SOL    HW218053   4.583   0.790   7.230 -0.7758 -0.4369  0.6227
 5545SOL     OW18054   1.779   1.102   6.896  0.9072 -0.5394 -0.0825
 5545SOL    HW118055   1.722   1.163   6.943  1.7764  0.1527  0.1207
 5545SOL    HW218056   1.868   1.129   6.921  1.3513 -0.9467 -1.1546
 5546SOL     OW18057   5.317   2.748   5.712 -0.2043  0.3615 -0.4614
 5546SOL    HW118058   5.373   2.678   5.746 -1.6160 -0.6936 -0.2164
 5546SOL    HW218059   5.369   2.828   5.723  0.1499 -0.1809  2.4330
 5547SOL     OW18060   7.013   3.347   6.909  0.1569  0.3344 -0.4172
 5547SOL    HW118061   7.038   3.366   6.999  1.3885 -1.0501 -0.4397
 5547SOL    HW218062   6.943   3.282   6.917  0.0222  0.4739 -0.4568
 5548SOL     OW18063   5.717   0.663   0.737 -0.0598  0.3910 -0.3953
 5548SOL    HW118064   5.797   0.703   0.770  0.7077  0.6488 -2.4263
 5548SOL    HW218065   5.747   0.605   0.667 -1.6202  0.2281 -0.9636
 5549SOL     OW18066   0.815   4.937   3.097 -0.1340 -0.8428 -0.3235
 5549SOL    HW118067   0.723   4.922   3.075  0.1640 -1.8952 -0.8972
 5549SOL    HW218068   0.827   5.031   3.087 -0.6544 -0.9386 -2.2224
 5550SOL     OW18069   4.596   3.682   3.791 -0.2565  0.3057 -0.1687
 5550SOL    HW118070   4.524   3.682   3.728  0.4285 -0.1858 -0.9771
 5550SOL    HW218071   4.674   3.663   3.738  0.0967 -2.0313  1.0644
 5551SOL     OW18072   6.902   3.316   3.148 -0.7938 -0.2422  0.3546
 5551SOL    HW118073   6.965   3.387   3.138  0.7869 -1.5855  0.3140
 5551SOL    HW218074   6.911   3.289   3.239 -2.2651  0.3406  0.7160
 5552SOL     OW18075   3.345   2.157   0.441  0.5329  0.0345 -0.1240
 5552SOL    HW118076   3.420   2.217   0.431  0.5594  0.4445  2.0230
 5552SOL    HW218077   3.285   2.204   0.499 -1.6429 -0.1220 -2.1044
 5553SOL     OW18078   4.130   1.369   6.778 -0.5371 -0.3356  0.2209
 5553SOL    HW118079   4.192   1.330   6.715 -2.4631 -1.0739 -1.3399
 5553SOL    HW218080   4.125   1.306   6.849 -0.2688 -0.7953 -0.1601
 5554SOL     OW18081   7.313   2.466   4.588 -0.2027 -0.1199  0.1114
 5554SOL    HW118082   7.325   2.506   4.502  0.2216 -0.5358 -0.0256
 5554SOL    HW218083   7.223   2.486   4.612  0.1783  1.4522  0.3152
 5555SOL     OW18084   3.418   3.436   5.027 -0.2073  0.0516 -0.2611
 5555SOL    HW118085   3.445   3.432   5.119 -0.0960  1.3428 -0.2265
 5555SOL    HW218086   3.347   3.500   5.025 -0.3033 -0.0672 -1.0526
 5556SOL     OW18087   1.405   6.378   3.194 -0.1902 -0.3309 -0.1794
 5556SOL    HW118088   1.342   6.402   3.263  0.0092 -0.6449  0.1137
 5556SOL    HW218089   1.490   6.407   3.227  0.0447 -1.3475  0.1454
 5557SOL     OW18090   3.067   0.044   2.310 -0.1041  0.2736  0.7421
 5557SOL    HW118091   3.110   0.062   2.226 -0.3893 -0.6287  0.3827
 5557SOL    HW218092   3.019   0.123   2.331  1.6994  1.3211  1.1392
 5558SOL     OW18093   0.966   0.859   1.835 -0.0797  0.0646  0.5932
 5558SOL    HW118094   0.921   0.842   1.918 -1.0964  0.4563  0.1220
 5558SOL    HW218095   0.899   0.892   1.776  0.3175 -1.5498 -0.8507
 5559SOL     OW18096   7.573   2.822   0.392 -0.2506  0.4656 -0.4353
 5559SOL    HW118097   7.547   2.770   0.316 -2.1346  0.5410  0.1041
 5559SOL    HW218098   7.639   2.769   0.436 -0.8163 -0.6455 -0.8880
 5560SOL     OW18099   6.533   7.048   6.116  0.1274  0.3236 -0.5817
 5560SOL    HW118100   6.545   6.953   6.118 -1.4932 -0.0212 -2.8051
 5560SOL    HW218101   6.440   7.061   6.134  0.4508  1.5574  0.3309
 5561SOL     OW18102   0.965   3.153   1.306  0.2981 -0.4963  0.1987
 5561SOL    HW118103   0.976   3.064   1.274  0.7853 -1.9379  3.8248
 5561SOL    HW218104   1.054   3.181   1.328  0.1301  0.8667 -0.7329
 5562SOL     OW18105   1.438   4.298   4.900 -0.5956  0.0444 -0.0335
 5562SOL    HW118106   1.443   4.364   4.831  0.5466 -0.1256 -0.1289
 5562SOL    HW218107   1.417   4.216   4.854 -2.3683  0.3805  0.1246
 5563SOL     OW18108   8.036   1.454   7.811  0.2542  0.1807 -0.3175
 5563SOL    HW118109   8.005   1.422   7.726  0.4522 -0.9657  0.0139
 5563SOL    HW218110   7.969   1.425   7.873  0.5414  0.2382  0.0253
 5564SOL     OW18111   6.544   5.876   1.840  0.1181 -0.0950 -0.1091
 5564SOL    HW118112   6.604   5.876   1.766 -1.2547 -0.2977 -1.2713
 5564SOL    HW218113   6.521   5.783   1.852 -1.5251  0.1554 -1.0400
 5565SOL     OW18114   2.726   7.563   3.485 -0.0979  0.2108  0.1123
 5565SOL    HW118115   2.782   7.488   3.468  0.2113  0.2660  0.8468
 5565SOL    HW218116   2.782   7.626   3.530 -0.3800  0.8433 -0.4043
 5566SOL     OW18117   2.157   3.590   5.457 -0.1577  0.4857  0.1214
 5566SOL    HW118118   2.145   3.685   5.449 -0.2225  0.4588 -0.1048
 5566SOL    HW218119   2.111   3.553   5.382  0.5523  0.3244 -0.2431
 5567SOL     OW18120   3.238   7.324   0.413  0.7129  0.0512 -0.3269
 5567SOL    HW118121   3.227   7.374   0.494 -0.5882  1.2145 -1.1582
 5567SOL    HW218122   3.170   7.257   0.417  0.6011  0.1544 -0.4814
 5568SOL     OW18123   0.075   3.262   2.968 -0.8446  0.3903  0.2447
 5568SOL    HW118124   0.169   3.252   2.955 -0.8815  0.4681 -0.0993
 5568SOL    HW218125   0.055   3.350   2.936 -0.7214  1.1487  2.1553
 5569SOL     OW18126   3.905   6.591   0.113  0.2860 -0.3601  0.3089
 5569SOL    HW118127   3.844   6.551   0.050  0.0746  1.2182 -0.5502
 5569SOL    HW218128   3.893   6.685   0.100  0.5711  0.0113  2.4308
 5570SOL     OW18129   1.544   7.536   7.381  0.1910  0.1317  0.2540
 5570SOL    HW118130   1.530   7.468   7.315  1.0377  1.4551 -1.3805
 5570SOL    HW218131   1.486   7.512   7.453 -0.5858 -1.5312 -0.8606
 5571SOL     OW18132   2.198   1.043   5.701  0.0829 -0.0567  0.1710
 5571SOL    HW118133   2.177   1.122   5.651 -0.3779  0.0121  0.4663
 5571SOL    HW218134   2.270   1.070   5.758 -0.3808  0.2846  0.6032
 5572SOL     OW18135   5.790   7.442   4.099 -0.5546 -0.2361  0.4937
 5572SOL    HW118136   5.780   7.504   4.171 -1.6865  3.6052 -2.5732
 5572SOL    HW218137   5.881   7.450   4.072 -0.6195 -0.1132  0.3037
 5573SOL     OW18138   0.553   3.182   2.137  0.0600 -0.3177 -0.2006
 5573SOL    HW118139   0.632   3.229   2.108 -0.3598  0.3525 -0.2812
 5573SOL    HW218140   0.484   3.212   2.077 -0.7198  0.7053  1.1686
 5574SOL     OW18141   7.120   6.533   1.703 -0.0783 -1.2474 -0.3086
 5574SOL    HW118142   7.131   6.532   1.798 -0.3913  0.0270 -0.2466
 5574SOL    HW218143   7.204   6.562   1.669 -0.6266  0.5068 -0.2726
 5575SOL     OW18144   3.342   0.970   7.691 -0.2148  0.0474  0.4496
 5575SOL    HW118145   3.296   1.053   7.695 -0.2630 -0.0118  1.2149
 5575SOL    HW218146   3.363   0.958   7.598  0.9365  1.5317  0.4776
 5576SOL     OW18147   0.705   0.776   1.727  0.0021  0.4404 -0.1760
 5576SOL    HW118148   0.756   0.756   1.648 -0.0061  0.2877 -0.1432
 5576SOL    HW218149   0.635   0.710   1.728  0.5882 -0.1814  0.4942
 5577SOL     OW18150   3.321   7.521   3.956  0.2165  0.4128  0.1668
 5577SOL    HW118151   3.370   7.452   4.001 -0.6033  0.8134  1.7553
 5577SOL    HW218152   3.307   7.588   4.023 -1.2272  0.9629 -0.6312
 5578SOL     OW18153   1.008   6.717   0.027  0.0450 -0.3993 -0.4668
 5578SOL    HW118154   1.015   6.628   0.060  2.4550 -0.5037 -1.0188
 5578SOL    HW218155   0.998   6.772   0.105  2.0075 -0.9145  0.1965
 5579SOL     OW18156   7.809   6.307   7.290  0.2419 -0.0262 -0.5311
 5579SOL    HW118157   7.821   6.278   7.199  0.7617 -0.9526 -0.1807
 5579SOL    HW218158   7.880   6.369   7.305  0.8095 -0.6871 -0.4353
 5580SOL     OW18159   7.716   7.607   2.293 -0.2662  0.1997  0.5008
 5580SOL    HW118160   7.666   7.645   2.221 -0.9242 -1.6363 -0.0496
 5580SOL    HW218161   7.777   7.546   2.251  0.7223  0.5474  1.3678
 5581SOL     OW18162   2.217   1.185   7.070  0.3276 -0.2731  0.1920
 5581SOL    HW118163   2.266   1.186   7.153  1.6004  1.4047 -0.5203
 5581SOL    HW218164   2.258   1.114   7.020 -0.7263 -1.5845  1.0932
 5582SOL     OW18165   2.812   1.949   2.466  0.0556  0.1611  0.2975
 5582SOL    HW118166   2.772   1.867   2.437 -0.3411  0.1143  0.9510
 5582SOL    HW218167   2.861   1.925   2.544  1.4956  0.1900 -0.5649
 5583SOL     OW18168   6.507   7.378   5.016 -0.2771 -0.0713 -0.1368
 5583SOL    HW118169   6.596   7.411   5.015 -0.0635 -0.6525 -0.9789
 5583SOL    HW218170   6.498   7.336   5.102  0.8062 -1.4559 -0.6665
 5584SOL     OW18171   3.848   4.817   3.383  0.1655 -0.6160 -0.3322
 5584SOL    HW118172   3.928   4.870   3.381  0.2873 -0.8119 -0.7337
 5584SOL    HW218173   3.875   4.736   3.425 -0.5167  0.4257  2.2926
 5585SOL     OW18174   7.017   0.729   1.406  0.5132 -0.6744 -0.0629
 5585SOL    HW118175   6.968   0.653   1.376  1.1780 -1.0726 -0.1797
 5585SOL    HW218176   7.042   0.707   1.496 -1.0285  0.2915  0.6437
 5586SOL     OW18177   7.861   5.852   0.383  0.4507 -0.7275 -0.1235
 5586SOL    HW118178   7.808   5.871   0.305  1.5181 -2.0245 -1.2148
 5586SOL    HW218179   7.824   5.770   0.417  1.3927 -1.3539 -0.5791
 5587SOL     OW18180   1.639   6.140   6.386 -0.3584 -1.0371 -0.5927
 5587SOL    HW118181   1.697   6.164   6.314  0.3715 -1.9242 -0.3173
 5587SOL    HW218182   1.657   6.205   6.454  1.8544 -2.4697  0.2769
 5588SOL     OW18183   3.579   2.638   6.777  0.1488  0.5474  0.0755
 5588SOL    HW118184   3.492   2.650   6.740 -1.0007 -0.9139  2.1016
 5588SOL    HW218185   3.607   2.552   6.746 -0.6978 -0.5536  2.2349
 5589SOL     OW18186   5.350   5.734   2.361  0.0185  0.2477  0.1965
 5589SOL    HW118187   5.305   5.659   2.322 -0.1112  0.9007 -0.9517
 5589SOL    HW218188   5.289   5.807   2.352  0.5975  0.7515  0.2327
 5590SOL     OW18189   6.193   6.567   2.113  0.2274  0.1987 -0.2489
 5590SOL    HW118190   6.109   6.529   2.140 -0.1938 -0.3193 -2.1628
 5590SOL    HW218191   6.258   6.504   2.145 -0.1084  0.5050  1.0832
 5591SOL     OW18192   5.678   2.331   1.950  0.1065  0.0521  0.1622
 5591SOL    HW118193   5.605   2.295   2.000 -0.3253  1.0380  0.2669
 5591SOL    HW218194   5.756   2.308   2.002 -0.3401  1.1201  1.3811
 5592SOL     OW18195   0.856   3.955   6.367  0.1609  0.6593  0.2321
 5592SOL    HW118196   0.806   4.007   6.304  0.8688  0.8905 -0.1421
 5592SOL    HW218197   0.934   3.927   6.319 -1.1412 -2.4751 -0.2470
 5593SOL     OW18198   6.800   4.300   6.562  0.0754 -0.2006 -0.1468
 5593SOL    HW118199   6.780   4.327   6.651 -2.9136 -1.3566 -0.3580
 5593SOL    HW218200   6.790   4.205   6.563 -0.7529 -0.1685 -1.8461
 5594SOL     OW18201   3.438   4.717   7.833  0.1958 -0.6361  0.5484
 5594SOL    HW118202   3.505   4.727   7.765 -1.0034 -0.1825 -0.6256
 5594SOL    HW218203   3.437   4.624   7.853  1.7711 -0.5323  1.2508
 5595SOL     OW18204   6.581   5.371   6.588 -0.8006  0.0951 -0.2124
 5595SOL    HW118205   6.622   5.299   6.636 -2.3007 -1.7521 -1.5599
 5595SOL    HW218206   6.652   5.434   6.574  1.1155 -2.0436 -0.7395
 5596SOL     OW18207   0.169   0.701   2.753 -0.2435  0.2862 -0.4892
 5596SOL    HW118208   0.227   0.624   2.747  0.1687  0.3868  1.4729
 5596SOL    HW218209   0.147   0.721   2.663  2.6798  0.1498 -1.3395
 5597SOL     OW18210   2.915   3.435   5.795  0.2556 -0.5067 -0.2269
 5597SOL    HW118211   2.966   3.354   5.795  3.1716  1.1671 -0.1160
 5597SOL    HW218212   2.905   3.457   5.888 -0.1067 -0.5128 -0.2648
 5598SOL     OW18213   1.900   4.857   1.140  0.5290  0.0537 -0.2429
 5598SOL    HW118214   1.926   4.778   1.092 -2.9284 -0.6675 -1.2117
 5598SOL    HW218215   1.889   4.828   1.230 -0.4147 -0.5491 -0.5334
 5599SOL     OW18216   0.805   1.248   5.898 -0.0596 -0.2937  0.6835
 5599SOL    HW118217   0.848   1.327   5.867 -1.4213  1.2391  2.4792
 5599SOL    HW218218   0.855   1.223   5.976 -0.0949 -0.7867  0.5524
 5600SOL     OW18219   1.473   0.023   5.992 -0.2790  0.5876 -0.2785
 5600SOL    HW118220   1.413  -0.048   5.971  0.0342 -0.3006  1.5578
 5600SOL    HW218221   1.429   0.102   5.962 -0.6782 -0.3526 -2.2782
 5601SOL     OW18222   4.628   4.781   1.883  0.4706 -0.2500  0.2267
 5601SOL    HW118223   4.613   4.752   1.793  0.3681  2.0981 -0.5804
 5601SOL    HW218224   4.550   4.832   1.906  1.3907  0.9420  0.8479
 5602SOL     OW18225   7.404   3.107   5.182 -0.2676 -0.0506 -0.2721
 5602SOL    HW118226   7.370   3.085   5.268  0.1571 -2.1339 -0.5907
 5602SOL    HW218227   7.363   3.191   5.161 -1.4369 -0.1631  1.3690
 5603SOL     OW18228   7.717   4.234   0.775  0.1079 -0.0523 -0.1657
 5603SOL    HW118229   7.651   4.202   0.836  0.7758 -1.6869 -0.2517
 5603SOL    HW218230   7.800   4.209   0.815  0.6487  1.1367 -0.5151
 5604SOL     OW18231   4.879   4.192   3.691  0.2291 -0.2040 -0.5037
 5604SOL    HW118232   4.958   4.243   3.675  1.3918 -2.0644 -1.0524
 5604SOL    HW218233   4.880   4.172   3.785 -0.0568  0.4723 -0.3518
 5605SOL     OW18234   3.743   0.872   6.589 -0.1237  0.1234  0.4338
 5605SOL    HW118235   3.817   0.811   6.593 -0.3123 -0.1036  0.5231
 5605SOL    HW218236   3.783   0.958   6.584  0.1571  0.0517  1.2027
 5606SOL     OW18237   3.302   1.490   6.765 -0.1109 -0.2401 -0.1420
 5606SOL    HW118238   3.233   1.456   6.822 -0.4557  0.0465 -0.3791
 5606SOL    HW218239   3.285   1.449   6.680 -0.8130  0.8501 -0.5517
 5607SOL     OW18240   4.334   1.577   3.132 -0.3579  0.1712  0.1400
 5607SOL    HW118241   4.362   1.518   3.201  2.7784 -0.7684 -1.7399
 5607SOL    HW218242   4.397   1.649   3.135 -1.8174  1.5278 -0.0698
 5608SOL     OW18243   6.485   2.431   7.465 -0.5761 -0.0546 -0.2230
 5608SOL    HW118244   6.544   2.465   7.397 -1.6116  2.3685 -0.0187
 5608SOL    HW218245   6.398   2.462   7.438 -1.0748  0.6173  1.9610
 5609SOL     OW18246   6.441   2.729   5.617  0.2270 -0.7788 -0.0943
 5609SOL    HW118247   6.512   2.711   5.678  1.9577  0.9099 -1.4774
 5609SOL    HW218248   6.364   2.741   5.673  1.5808  0.0111  1.7000
 5610SOL     OW18249   5.761   5.611   0.393  0.6978 -0.1872 -0.3821
 5610SOL    HW118250   5.855   5.594   0.384  0.6004 -2.5518  1.7857
 5610SOL    HW218251   5.753   5.665   0.472  0.2209 -0.3329 -0.3254
 5611SOL     OW18252   1.076   3.700   4.800 -0.1024 -0.1279 -0.2731
 5611SOL    HW118253   1.006   3.751   4.841  0.0273 -0.3291  0.2056
 5611SOL    HW218254   1.039   3.613   4.789  0.4904 -0.5961  1.1825
 5612SOL     OW18255   5.066   4.211   2.474  0.7687  0.1003  0.2938
 5612SOL    HW118256   5.027   4.131   2.437  0.3594  0.3078  0.2733
 5612SOL    HW218257   5.096   4.261   2.398 -0.6237  0.8120  0.1898
 5613SOL     OW18258   0.371   7.592   2.118  0.1070 -0.2280 -0.5203
 5613SOL    HW118259   0.339   7.542   2.193 -0.1267  1.3234  0.4657
 5613SOL    HW218260   0.385   7.527   2.049 -1.6356 -1.4451  0.2096
 5614SOL     OW18261   2.615   4.120   1.592 -0.1053 -0.4813 -0.4114
 5614SOL    HW118262   2.655   4.129   1.506 -0.5113 -2.1996 -0.8135
 5614SOL    HW218263   2.528   4.083   1.575  0.0286 -1.4139  0.7658
 5615SOL     OW18264   0.072   5.408   1.487 -0.6241  0.0632 -0.0564
 5615SOL    HW118265   0.133   5.429   1.557 -1.0142 -0.2167  0.3728
 5615SOL    HW218266   0.115   5.337   1.438  0.0645  0.8872 -0.6719
 5616SOL     OW18267   1.279   0.240   3.193 -0.3857  0.2064 -0.2320
 5616SOL    HW118268   1.272   0.146   3.207 -0.6295  0.3247  0.4820
 5616SOL    HW218269   1.354   0.266   3.248 -1.8203  0.7993  1.5402
 5617SOL     OW18270   5.708   6.985   5.989 -0.4950  0.3656 -0.1323
 5617SOL    HW118271   5.665   6.956   5.909  0.7178  0.6310 -0.9190
 5617SOL    HW218272   5.673   7.072   6.005 -0.3326  0.5428 -0.7076
 5618SOL     OW18273   2.952   2.015   2.695 -0.0598 -0.0122  0.3492
 5618SOL    HW118274   2.909   2.101   2.693 -0.3918 -0.1748 -1.4425
 5618SOL    HW218275   3.045   2.035   2.698  0.0245  0.5527 -2.7398
 5619SOL     OW18276   1.578   7.387   3.344 -0.5953 -0.2483 -0.5724
 5619SOL    HW118277   1.549   7.347   3.262 -0.6148 -0.7533 -0.3243
 5619SOL    HW218278   1.636   7.322   3.384  0.0946  0.3343 -0.5802
 5620SOL     OW18279   3.454   0.308   2.263  0.4783  0.0186  0.0355
 5620SOL    HW118280   3.538   0.315   2.217  0.0526  0.9281 -0.6506
 5620SOL    HW218281   3.417   0.396   2.257 -1.2967 -0.7629 -1.2089
 5621SOL     OW18282   7.507   0.554   7.140 -0.2769  0.0408  0.3155
 5621SOL    HW118283   7.540   0.639   7.112  2.0884 -0.9054 -0.0678
 5621SOL    HW218284   7.500   0.503   7.059 -2.1474 -0.0026  0.4819
 5622SOL     OW18285   4.501   3.012   6.078  0.0467 -0.1599  0.0345
 5622SOL    HW118286   4.476   3.051   5.994  0.2878 -0.2021 -0.0565
 5622SOL    HW218287   4.421   2.972   6.111 -0.5457  1.4948  0.7288
 5623SOL     OW18288   6.576   6.683   0.006 -0.4129  0.1653  0.6351
 5623SOL    HW118289   6.612   6.595   0.003 -1.9542 -0.5341  1.3921
 5623SOL    HW218290   6.647   6.738   0.038  0.8041 -0.6473 -0.5894
 5624SOL     OW18291   0.986   3.953   7.956 -0.8028  0.4202  0.2944
 5624SOL    HW118292   1.034   3.878   7.991  1.6627  2.1147  0.7724
 5624SOL    HW218293   0.925   3.977   8.026 -0.2215  0.0779  0.9228
 5625SOL     OW18294   0.589   6.081   6.797  0.1892  0.2451  0.0861
 5625SOL    HW118295   0.572   6.139   6.871 -3.1141 -0.3683 -0.0248
 5625SOL    HW218296   0.537   6.117   6.725  0.5602 -1.0819 -0.8936
 5626SOL     OW18297   5.253   5.408   6.962  0.7376  0.3622 -0.2228
 5626SOL    HW118298   5.253   5.496   6.923 -0.2943  0.5903  0.2365
 5626SOL    HW218299   5.270   5.423   7.055  1.3604 -0.0027 -0.2770
 5627SOL     OW18300   1.810   5.808   4.688 -0.2364  0.1040  0.5780
 5627SOL    HW118301   1.850   5.726   4.660 -0.0422  0.4847 -0.3199
 5627SOL    HW218302   1.802   5.859   4.607 -0.1441  1.0544  1.1453
 5628SOL     OW18303   1.705   7.391   1.127  0.2085 -0.3592 -0.2868
 5628SOL    HW118304   1.720   7.315   1.183 -2.0396  0.4226  1.5418
 5628SOL    HW218305   1.725   7.360   1.039  2.1141 -2.1841  0.7079
 5629SOL     OW18306   3.633   7.727   3.219  0.2080  0.0549 -0.0446
 5629SOL    HW118307   3.703   7.745   3.282 -0.5504  0.0964  0.8169
 5629SOL    HW218308   3.646   7.636   3.194  0.7311  0.1415 -0.0989
 5630SOL     OW18309   0.732   5.329   1.530  0.0857  0.1081  0.2169
 5630SOL    HW118310   0.699   5.418   1.542 -1.3025  0.1274 -2.7961
 5630SOL    HW218311   0.783   5.332   1.449  1.6791 -1.4667  1.0851
 5631SOL     OW18312   7.122   4.130   7.971 -0.2598  0.0903  0.1691
 5631SOL    HW118313   7.115   4.039   8.000 -1.0026  0.3117  0.7161
 5631SOL    HW218314   7.160   4.176   8.046  1.8401 -0.0636 -0.7310
 5632SOL     OW18315   1.914   3.112   4.058 -0.0091  0.2643  0.4803
 5632SOL    HW118316   1.879   3.119   3.969 -0.2503  0.1630  0.5652
 5632SOL    HW218317   1.901   3.198   4.097  0.2308  0.3506  0.3687
 5633SOL     OW18318   7.789   4.180   3.367  0.2010 -0.0704  0.4389
 5633SOL    HW118319   7.839   4.253   3.403  0.3741 -0.1941  0.4511
 5633SOL    HW218320   7.709   4.220   3.334  0.7444  0.2866 -0.5037
 5634SOL     OW18321   6.738   6.281   2.114 -0.3562 -0.3673  0.5470
 5634SOL    HW118322   6.799   6.214   2.148  1.1846  1.6453  2.0073
 5634SOL    HW218323   6.734   6.264   2.020  2.4396 -0.6671  0.3929
 5635SOL     OW18324   2.113   3.441   0.511 -0.1248 -0.4560  0.2152
 5635SOL    HW118325   2.096   3.407   0.599  0.7842  0.3618  0.7269
 5635SOL    HW218326   2.181   3.383   0.476  1.5146  0.8072  1.1334
 5636SOL     OW18327   3.483   0.609   5.737  0.6650 -0.0580 -0.0372
 5636SOL    HW118328   3.518   0.683   5.688  1.4956  0.7983  1.7264
 5636SOL    HW218329   3.513   0.532   5.689  1.7574  0.7265 -0.6601
 5637SOL     OW18330   6.212   7.324   7.479 -0.0393 -0.2033 -0.3257
 5637SOL    HW118331   6.294   7.373   7.484 -0.4760  0.6235 -0.9808
 5637SOL    HW218332   6.204   7.280   7.564 -0.0032  1.4761  0.5704
 5638SOL     OW18333   5.929   0.854   3.889  0.0771  0.0522 -0.0755
 5638SOL    HW118334   5.861   0.803   3.933  1.1416 -0.0793  1.4789
 5638SOL    HW218335   5.945   0.929   3.946  1.6756 -0.2503 -0.0732
 5639SOL     OW18336   6.328   7.950   1.633 -0.7121 -0.3037  0.3570
 5639SOL    HW118337   6.256   7.886   1.628 -2.5831  1.7400 -0.5311
 5639SOL    HW218338   6.346   7.958   1.727 -1.3926 -1.1257  0.5754
 5640SOL     OW18339   0.405   6.451   4.786  0.1935 -0.0282  0.0132
 5640SOL    HW118340   0.322   6.465   4.741 -0.6603  0.4107  1.6165
 5640SOL    HW218341   0.469   6.503   4.737 -0.5866  0.0290 -0.9606
 5641SOL     OW18342   5.169   4.067   4.528  0.4940  0.0296  0.4379
 5641SOL    HW118343   5.153   4.040   4.437  0.8702  1.2647 -0.0146
 5641SOL    HW218344   5.156   3.987   4.579  1.2108 -0.9104 -0.7910
 5642SOL     OW18345   2.400   5.531   3.272 -0.4286 -0.2573  0.2625
 5642SOL    HW118346   2.381   5.445   3.310  0.1298 -1.0712 -1.2072
 5642SOL    HW218347   2.475   5.515   3.215 -0.0859  1.2992  0.2441
 5643SOL     OW18348   1.717   5.650   3.024  0.4742  0.4565  0.3826
 5643SOL    HW118349   1.744   5.721   3.082  1.5697  0.7539 -0.4647
 5643SOL    HW218350   1.795   5.598   3.010  0.2409  0.3955 -0.8206
 5644SOL     OW18351   2.636   1.812   7.562 -0.0470 -0.1278  0.3857
 5644SOL    HW118352   2.702   1.861   7.611  0.7715  0.5977 -1.3297
 5644SOL    HW218353   2.560   1.871   7.558  0.6129  0.6868 -0.8974
 5645SOL     OW18354   4.761   4.663   2.510 -0.2960 -0.1104 -0.3810
 5645SOL    HW118355   4.753   4.756   2.529 -1.0603 -0.5682  1.8117
 5645SOL    HW218356   4.759   4.621   2.596 -0.5359 -2.1862 -1.3506
 5646SOL     OW18357   2.626   2.244   7.868 -0.7120  0.2646 -0.1148
 5646SOL    HW118358   2.553   2.200   7.824 -0.8653  0.3453  0.0588
 5646SOL    HW218359   2.646   2.189   7.943 -0.0241 -0.2197 -0.6338
 5647SOL     OW18360   4.621   7.851   7.355  0.1574 -0.2366  0.0873
 5647SOL    HW118361   4.649   7.918   7.417 -0.3022 -0.6284  0.7239
 5647SOL    HW218362   4.554   7.802   7.401  0.8252 -1.4533 -0.1908
 5648SOL     OW18363   5.508   1.884   3.297 -0.1973 -0.2617  0.5427
 5648SOL    HW118364   5.428   1.921   3.335 -0.7111 -0.4271 -0.3612
 5648SOL    HW218365   5.484   1.861   3.207  0.5574 -1.3221  0.5919
 5649SOL     OW18366   0.291   6.707   4.563 -0.1842 -0.1878 -0.2051
 5649SOL    HW118367   0.289   6.613   4.544  0.3863 -0.9362  2.8720
 5649SOL    HW218368   0.378   6.735   4.536 -0.9369 -0.0126 -2.8083
 5650SOL     OW18369   3.334   0.368   6.571 -0.0934  0.1532  0.0100
 5650SOL    HW118370   3.382   0.399   6.494 -1.1512  0.5994 -0.4815
 5650SOL    HW218371   3.277   0.299   6.538 -0.2697  0.0685  0.4785
 5651SOL     OW18372   6.148   4.647   2.557 -1.0849 -0.2637  0.1016
 5651SOL    HW118373   6.232   4.605   2.538 -0.9042 -0.4870  1.3254
 5651SOL    HW218374   6.171   4.727   2.605 -1.5473 -0.1226  0.0981
 5652SOL     OW18375   1.793   3.922   2.010 -0.5609  0.9296 -0.6238
 5652SOL    HW118376   1.707   3.888   2.035  0.4300 -0.5607  0.9989
 5652SOL    HW218377   1.789   3.932   1.915 -2.2222  0.0106 -0.6722
 5653SOL     OW18378   7.693   5.757   1.019 -0.3093  0.0808  0.4972
 5653SOL    HW118379   7.772   5.717   0.984 -1.4331 -0.7422 -1.1990
 5653SOL    HW218380   7.675   5.708   1.099 -0.2393 -1.0990 -0.1921
 5654SOL     OW18381   6.359   3.929   7.096  0.7246 -0.1554  0.1854
 5654SOL    HW118382   6.325   3.957   7.181 -1.1376 -1.5441 -0.0486
 5654SOL    HW218383   6.325   3.840   7.084 -0.4500  0.5688 -2.7253
 5655SOL     OW18384   2.305   3.837   2.257  0.7194  0.4281  0.3785
 5655SOL    HW118385   2.398   3.842   2.278  0.5691  1.2958  0.8993
 5655SOL    HW218386   2.281   3.927   2.234 -0.4119  0.6480  2.1833
 5656SOL     OW18387   4.251   2.677   5.786 -0.3556  0.2256  0.0788
 5656SOL    HW118388   4.191   2.639   5.850 -0.0159  0.1710  0.3697
 5656SOL    HW218389   4.198   2.689   5.707 -0.7149  0.0672  0.2948
 5657SOL     OW18390   4.900   3.931   6.424  0.6191  0.7722  0.0785
 5657SOL    HW118391   4.907   4.023   6.450  0.3456  1.2580 -1.4562
 5657SOL    HW218392   4.840   3.893   6.488  0.2688  1.8078  0.3944
 5658SOL     OW18393   1.867   3.247   1.665 -0.6029 -0.6600 -0.2003
 5658SOL    HW118394   1.930   3.316   1.645  1.0759 -2.3330 -0.9367
 5658SOL    HW218395   1.912   3.190   1.726 -1.2958 -2.0147 -0.9082
 5659SOL     OW18396   7.941   3.487   7.911  0.2486 -0.0200  0.2134
 5659SOL    HW118397   7.892   3.516   7.988 -1.0162  1.4476 -1.0732
 5659SOL    HW218398   7.948   3.565   7.856 -2.9033 -1.8198 -3.2350
 5660SOL     OW18399   4.753   1.940   6.043  0.3152 -0.2117 -0.0515
 5660SOL    HW118400   4.691   1.931   6.116  0.2037 -0.8564 -0.2223
 5660SOL    HW218401   4.770   1.850   6.015  2.0311 -0.1267  0.5752
 5661SOL     OW18402   5.365   1.849   4.827  0.1868  0.2894  0.7362
 5661SOL    HW118403   5.376   1.798   4.908 -0.7330  0.0877  0.7521
 5661SOL    HW218404   5.292   1.806   4.782  0.5135  0.5702 -0.0759
 5662SOL     OW18405   0.938   6.617   4.260 -0.0874  0.5747 -0.6662
 5662SOL    HW118406   0.915   6.708   4.278  0.2988  0.4803  0.4030
 5662SOL    HW218407   1.033   6.616   4.255 -0.0585  0.1558 -0.1659
 5663SOL     OW18408   4.464   4.748   0.438  0.4360 -0.1273  0.7174
 5663SOL    HW118409   4.501   4.724   0.353  1.0206 -1.0392  1.2101
 5663SOL    HW218410   4.445   4.841   0.431 -0.8148 -0.4649 -0.8823
 5664SOL     OW18411   2.417   7.493   5.649  0.4212 -0.4042 -0.0774
 5664SOL    HW118412   2.363   7.494   5.728 -0.6190  0.2383 -0.7620
 5664SOL    HW218413   2.445   7.584   5.639  0.7753 -0.5362 -0.2935
 5665SOL     OW18414   7.402   3.297   4.885  0.0138  0.7538 -0.1649
 5665SOL    HW118415   7.494   3.271   4.876  0.0544  0.6059  0.6200
 5665SOL    HW218416   7.401   3.354   4.961 -0.5759  0.6230 -0.0730
 5666SOL     OW18417   2.570   4.659   2.989  0.2579  0.5174  0.3413
 5666SOL    HW118418   2.510   4.613   3.047 -0.9886  2.9621  1.1442
 5666SOL    HW218419   2.652   4.665   3.038 -0.1156  0.6626  0.9592
 5667SOL     OW18420   5.618   2.193   6.683  0.4660 -0.8459 -0.0250
 5667SOL    HW118421   5.695   2.137   6.688  1.5838  0.6670  0.2229
 5667SOL    HW218422   5.611   2.218   6.591  1.2555  0.3131  0.2106
 5668SOL     OW18423   1.470   4.230   1.379 -0.1522 -0.8808  0.1929
 5668SOL    HW118424   1.466   4.265   1.290 -2.1805 -1.5206 -0.0244
 5668SOL    HW218425   1.545   4.171   1.379  0.4926 -0.0828 -0.7855
 5669SOL     OW18426   2.312   7.020   0.349 -0.2866 -0.0155  0.1248
 5669SOL    HW118427   2.236   7.054   0.398  0.1847 -0.6591  1.3444
 5669SOL    HW218428   2.377   7.002   0.416  1.2915  1.3188 -0.9867
 5670SOL     OW18429   3.545   2.164   2.982 -0.1321 -0.2363 -0.1577
 5670SOL    HW118430   3.524   2.246   2.937 -3.1409  0.0744  1.5935
 5670SOL    HW218431   3.500   2.096   2.932  0.8980 -0.6353 -0.5831
 5671SOL     OW18432   6.424   5.709   7.602  0.1670  0.5470 -0.4163
 5671SOL    HW118433   6.425   5.798   7.638  1.1317 -0.2205  1.5849
 5671SOL    HW218434   6.334   5.696   7.573 -0.6062  1.3500  1.4614
 5672SOL     OW18435   5.834   3.398   6.333 -0.0137  0.2432  0.0034
 5672SOL    HW118436   5.753   3.351   6.313 -0.2408  0.5025  0.3051
 5672SOL    HW218437   5.826   3.422   6.425  0.1241  0.8179 -0.1285
 5673SOL     OW18438   5.603   5.523   7.943  0.5737 -0.1525 -0.0626
 5673SOL    HW118439   5.670   5.519   8.012  1.4755  0.6616 -0.8648
 5673SOL    HW218440   5.651   5.511   7.862 -0.0715  1.5696 -0.7470
 5674SOL     OW18441   5.311   6.506   0.282  0.1275  0.0906 -0.0303
 5674SOL    HW118442   5.237   6.500   0.344 -0.8517 -0.5837 -1.2131
 5674SOL    HW218443   5.383   6.460   0.326  0.4257  2.2400  1.8950
 5675SOL     OW18444   3.974   8.056   5.171 -0.8693 -0.1365  0.4675
 5675SOL    HW118445   4.060   8.097   5.163 -0.3647 -1.3853 -1.1377
 5675SOL    HW218446   3.929   8.108   5.237  1.0054  0.7200  1.1536
 5676SOL     OW18447   7.602   1.704   6.241 -0.4563 -0.1328 -0.3742
 5676SOL    HW118448   7.624   1.738   6.154 -1.3348  1.3192 -0.0515
 5676SOL    HW218449   7.514   1.737   6.258  0.1300  0.5656  1.5315
 5677SOL     OW18450   0.532   4.500   5.215 -0.0632  0.3098  0.1739
 5677SOL    HW118451   0.577   4.568   5.266  0.2594  0.8694 -0.8361
 5677SOL    HW218452   0.457   4.475   5.270 -0.0448  1.3070  0.6728
 5678SOL     OW18453   7.191   1.015   4.846 -0.4896  0.0996  0.2215
 5678SOL    HW118454   7.243   1.095   4.836 -1.5924  0.8861  0.5306
 5678SOL    HW218455   7.142   1.028   4.927 -0.3016 -1.1349  0.5534
 5679SOL     OW18456   0.264   3.347   6.361  0.3192 -0.2398 -0.4675
 5679SOL    HW118457   0.347   3.387   6.387  0.3953 -0.2850 -0.6396
 5679SOL    HW218458   0.287   3.291   6.287  0.1398 -0.2758 -0.4953
 5680SOL     OW18459   6.501   0.740   1.888  0.1485 -0.3133 -0.3530
 5680SOL    HW118460   6.539   0.652   1.890  1.8549  0.3773 -0.5017
 5680SOL    HW218461   6.565   0.792   1.840 -1.0705  0.9209 -0.7027
 5681SOL     OW18462   7.947   3.071   7.043 -0.0177  0.6008  0.6926
 5681SOL    HW118463   8.010   3.077   7.115 -0.4003  1.8988  0.9425
 5681SOL    HW218464   7.892   3.148   7.053 -0.5427  0.4130 -0.5739
 5682SOL     OW18465   1.400   3.492   2.378 -0.8118 -0.4451  0.3474
 5682SOL    HW118466   1.445   3.528   2.301 -1.2212 -1.6865 -0.5100
 5682SOL    HW218467   1.383   3.568   2.433 -0.7893  0.5407 -0.9423
 5683SOL     OW18468   7.245   4.113   2.402  0.4980  0.2064 -1.1348
 5683SOL    HW118469   7.287   4.175   2.461 -0.0435 -0.8515  0.4375
 5683SOL    HW218470   7.211   4.166   2.330  0.4893  1.6473 -0.0956
 5684SOL     OW18471   3.165   1.287   7.485 -0.2358  0.1635  0.2560
 5684SOL    HW118472   3.215   1.338   7.422  0.9819 -0.6189  0.5613
 5684SOL    HW218473   3.110   1.352   7.530 -1.0709  0.7559 -1.4932
 5685SOL     OW18474   6.725   5.453   1.325  0.2447  0.2218 -0.4336
 5685SOL    HW118475   6.671   5.376   1.343  1.7734 -0.4367  1.7781
 5685SOL    HW218476   6.778   5.429   1.249 -1.3133  0.2524 -1.5789
 5686SOL     OW18477   5.300   7.930   2.497 -0.5577 -0.2005 -0.0858
 5686SOL    HW118478   5.339   7.852   2.538 -0.5645 -0.2529 -0.1775
 5686SOL    HW218479   5.331   8.003   2.550  0.4126 -0.1583 -0.7052
 5687SOL     OW18480   4.382   1.435   5.442 -0.3482 -0.4232  0.4475
 5687SOL    HW118481   4.365   1.394   5.527  2.1325  1.0403  1.7915
 5687SOL    HW218482   4.438   1.372   5.396  0.7260 -0.0111  1.1499
 5688SOL     OW18483   7.546   6.507   7.110  0.0639 -0.1187 -0.2884
 5688SOL    HW118484   7.491   6.517   7.188  0.7496  0.1762  0.1711
 5688SOL    HW218485   7.632   6.539   7.138  0.1272  0.7094 -1.3895
 5689SOL     OW18486   7.664   4.374   7.512 -0.4063 -1.0314 -0.3224
 5689SOL    HW118487   7.725   4.366   7.439 -0.6713 -0.0337 -0.6626
 5689SOL    HW218488   7.689   4.303   7.572 -0.2073 -1.8711 -1.3764
 5690SOL     OW18489   6.604   5.854   2.192  0.1767 -0.0892 -0.4512
 5690SOL    HW118490   6.587   5.855   2.097 -0.8041 -0.8130 -0.3004
 5690SOL    HW218491   6.525   5.892   2.231  0.4497 -0.0791  0.0948
 5691SOL     OW18492   5.258   1.907   4.447  0.9280 -0.1362  0.1256
 5691SOL    HW118493   5.324   1.960   4.492  1.9090 -1.3469  0.1783
 5691SOL    HW218494   5.224   1.849   4.515  2.4852 -2.0498 -0.6163
 5692SOL     OW18495   3.074   7.349   7.027 -0.2707  0.0121 -0.1347
 5692SOL    HW118496   3.043   7.411   7.093 -0.7318 -1.9284  1.5734
 5692SOL    HW218497   3.044   7.386   6.944 -0.4545  2.0819  0.7871
 5693SOL     OW18498   1.699   6.860   2.570  0.0683  0.0604 -0.4976
 5693SOL    HW118499   1.669   6.772   2.595 -0.6934  0.3773 -0.2925
 5693SOL    HW218500   1.790   6.862   2.598 -0.3281 -0.1450  0.8483
 5694SOL     OW18501   8.047   1.773   1.290  0.3287 -0.6164  0.0373
 5694SOL    HW118502   8.082   1.695   1.333 -0.8670  0.3872  3.1152
 5694SOL    HW218503   8.097   1.845   1.328 -0.1478  0.2853 -1.0082
 5695SOL     OW18504   3.810   0.965   7.403  0.2598  0.4295  0.0052
 5695SOL    HW118505   3.831   1.035   7.342 -2.0556  0.3482 -1.0087
 5695SOL    HW218506   3.804   1.008   7.488  1.5836  0.9206 -0.1345
 5696SOL     OW18507   5.775   7.829   4.952  0.5002 -0.3821  0.0524
 5696SOL    HW118508   5.810   7.891   5.016  0.4235  0.1453 -0.4105
 5696SOL    HW218509   5.708   7.878   4.905 -0.2949 -1.1330  0.3749
 5697SOL     OW18510   1.854   0.320   1.407  0.1934  0.0567  0.5061
 5697SOL    HW118511   1.857   0.408   1.369 -2.2479  0.3620  0.8461
 5697SOL    HW218512   1.945   0.298   1.425  0.9448  2.0996 -0.5323
 5698SOL     OW18513   6.705   3.521   7.334 -0.2917 -0.3824  0.2734
 5698SOL    HW118514   6.627   3.558   7.376  1.1792  1.2272  1.7951
 5698SOL    HW218515   6.770   3.515   7.405  1.1614 -1.1127 -1.0468
 5699SOL     OW18516   3.620   7.627   7.694  0.0376  0.2329 -0.6495
 5699SOL    HW118517   3.671   7.546   7.688 -4.0541 -2.7742  0.9807
 5699SOL    HW218518   3.594   7.646   7.603  1.5439  0.1557 -1.1222
 5700SOL     OW18519   0.871   0.651   5.839  0.2202 -0.5836  0.3755
 5700SOL    HW118520   0.810   0.720   5.813  0.6561  0.6401  2.3220
 5700SOL    HW218521   0.929   0.640   5.764 -0.1982  0.7946 -0.1826
 5701SOL     OW18522   4.568   1.834   3.304 -0.1658  0.0036  0.0155
 5701SOL    HW118523   4.597   1.879   3.383  0.8986  1.1247 -0.9784
 5701SOL    HW218524   4.632   1.858   3.237 -2.1485  0.8121 -1.7284
 5702SOL     OW18525   7.015   6.881   5.248 -0.0652 -0.0392  0.0089
 5702SOL    HW118526   7.094   6.923   5.283  0.3525 -1.2534  0.5818
 5702SOL    HW218527   7.038   6.788   5.243 -1.2202 -0.3122 -0.5094
 5703SOL     OW18528   7.068   4.076   3.305  0.1115 -0.0546  0.2663
 5703SOL    HW118529   7.025   4.139   3.363  1.3639  2.1239 -1.0213
 5703SOL    HW218530   7.134   4.034   3.359  1.2683  1.9389  0.5140
 5704SOL     OW18531   1.496   5.840   1.619  0.5306 -0.0273  0.1899
 5704SOL    HW118532   1.586   5.862   1.644  0.7619 -1.9383  1.2094
 5704SOL    HW218533   1.480   5.755   1.658 -1.6284  0.0970 -0.2844
 5705SOL     OW18534   7.362   4.431   4.099 -0.0371  0.2202  1.0380
 5705SOL    HW118535   7.322   4.386   4.025  0.0093  0.8352  0.6344
 5705SOL    HW218536   7.408   4.362   4.147  1.3768  0.0994 -0.4407
 5706SOL     OW18537   2.340   3.121   1.419 -0.1840  0.0426  0.2330
 5706SOL    HW118538   2.346   3.166   1.503 -0.5880  0.8362 -0.1574
 5706SOL    HW218539   2.412   3.158   1.368 -0.3866  0.0942 -0.0158
 5707SOL     OW18540   5.697   6.574   4.985  0.4187 -0.3935  0.2784
 5707SOL    HW118541   5.673   6.648   5.041  0.9228 -0.1728  0.1981
 5707SOL    HW218542   5.621   6.515   4.991 -0.9080  1.0371 -1.2934
 5708SOL     OW18543   3.371   0.356   7.353 -0.2098 -0.1374  0.5616
 5708SOL    HW118544   3.319   0.418   7.302  0.1605 -0.0703  0.2599
 5708SOL    HW218545   3.375   0.393   7.441  0.1818  0.3668  0.3323
 5709SOL     OW18546   6.053   3.889   0.985 -0.3722 -0.3842  0.0635
 5709SOL    HW118547   6.005   3.834   0.923 -0.8831 -0.8711  0.8765
 5709SOL    HW218548   5.986   3.926   1.041 -0.0488  1.1580 -0.5071
 5710SOL     OW18549   3.423   5.746   5.151 -0.5403  0.5391  0.5263
 5710SOL    HW118550   3.514   5.766   5.171 -1.1057  0.9251  3.1208
 5710SOL    HW218551   3.408   5.659   5.189 -0.7693 -0.4986 -1.7373
 5711SOL     OW18552   2.132   3.447   5.201 -0.0215 -0.6956  0.4929
 5711SOL    HW118553   2.220   3.417   5.180  0.8005  1.4380  0.6754
 5711SOL    HW218554   2.099   3.382   5.263  1.0540 -2.0269 -0.2782
 5712SOL     OW18555   4.633   4.222   1.120  0.2578  0.1337 -0.2555
 5712SOL    HW118556   4.620   4.271   1.038  0.6615 -0.6007 -0.7738
 5712SOL    HW218557   4.712   4.170   1.104  2.8331  2.9468  2.0253
 5713SOL     OW18558   5.695   2.143   2.715 -0.1474  0.1138 -0.2090
 5713SOL    HW118559   5.679   2.198   2.791 -0.0131  0.9758 -0.7941
 5713SOL    HW218560   5.750   2.197   2.657 -1.6068  0.1064 -1.6589
 5714SOL     OW18561   6.337   1.166   5.826 -0.2313  0.0411  0.6925
 5714SOL    HW118562   6.368   1.080   5.856  0.7698  0.5937  1.3161
 5714SOL    HW218563   6.253   1.177   5.870 -0.8732 -1.0483 -0.2085
 5715SOL     OW18564   2.501   6.185   3.802  0.2691 -0.4722 -0.2154
 5715SOL    HW118565   2.551   6.191   3.884 -1.2154  2.2328  0.5961
 5715SOL    HW218566   2.439   6.114   3.817  0.2656 -0.2625  0.8477
 5716SOL     OW18567   3.366   2.611   4.300 -0.2939  0.5807  0.5239
 5716SOL    HW118568   3.346   2.545   4.366  1.1034  0.0948  0.5030
 5716SOL    HW218569   3.393   2.688   4.350 -0.2577  0.5604  0.5358
 5717SOL     OW18570   4.444   4.712   3.622  0.1162  0.2062  0.0828
 5717SOL    HW118571   4.418   4.802   3.640  0.3324  0.5302 -1.1262
 5717SOL    HW218572   4.540   4.715   3.619  0.1848 -0.3174  1.2380
 5718SOL     OW18573   7.605   6.265   1.347  0.1458 -0.1248 -0.2536
 5718SOL    HW118574   7.665   6.317   1.294  0.7136 -0.7772 -0.2622
 5718SOL    HW218575   7.648   6.255   1.431 -0.9990  1.3789  0.5734
 5719SOL     OW18576   1.835   0.885   6.709  0.2166 -0.0738  0.1915
 5719SOL    HW118577   1.805   0.955   6.768 -0.9988 -0.4727  0.0634
 5719SOL    HW218578   1.890   0.830   6.764 -1.4751 -0.8427  1.1912
 5720SOL     OW18579   5.032   0.883   4.195  0.5941 -1.1192  0.3096
 5720SOL    HW118580   5.055   0.905   4.286  3.5862 -0.8291 -0.4067
 5720SOL    HW218581   5.044   0.788   4.190  2.6851 -0.8822 -0.2465
 5721SOL     OW18582   5.728   6.065   0.628 -0.7096 -0.0737  0.1942
 5721SOL    HW118583   5.815   6.070   0.589 -1.5889  0.5019 -1.8410
 5721SOL    HW218584   5.719   6.147   0.677  0.0907 -0.4131  0.9406
 5722SOL     OW18585   6.614   5.181   2.362  0.0882 -0.0613 -0.0686
 5722SOL    HW118586   6.642   5.101   2.406 -0.1691  0.7512  1.6571
 5722SOL    HW218587   6.520   5.168   2.347  0.2947 -0.5920 -0.9820
 5723SOL     OW18588   6.498   7.682   0.555  0.1358 -0.0928 -0.0741
 5723SOL    HW118589   6.512   7.589   0.573 -0.0851 -0.1529 -0.2020
 5723SOL    HW218590   6.579   7.725   0.583  0.0702 -0.2705  0.3987
 5724SOL     OW18591   1.365   3.989   2.488 -0.1256  0.1990  0.7356
 5724SOL    HW118592   1.297   3.997   2.555  0.6512  0.2314  1.5354
 5724SOL    HW218593   1.405   4.076   2.484 -1.4438  0.7806 -1.1938
 5725SOL     OW18594   4.900   0.266   1.800 -0.3139 -0.1244 -0.4907
 5725SOL    HW118595   4.861   0.267   1.887 -1.2895  1.4315 -0.9137
 5725SOL    HW218596   4.828   0.246   1.741  0.0105  0.3476 -1.0654
 5726SOL     OW18597   2.610   4.518   0.810  0.4241 -0.0700 -0.3200
 5726SOL    HW118598   2.613   4.474   0.725 -0.9358  1.8295 -1.4119
 5726SOL    HW218599   2.530   4.486   0.851  2.0284 -2.4938  1.2203
 5727SOL     OW18600   5.813   5.826   2.125 -0.1825 -0.1916  0.2676
 5727SOL    HW118601   5.874   5.894   2.095 -1.4254  0.7562 -0.1778
 5727SOL    HW218602   5.788   5.780   2.044 -0.4470 -0.2463  0.3804
 5728SOL     OW18603   7.796   6.183   0.180 -0.3208 -0.1920 -0.0148
 5728SOL    HW118604   7.774   6.090   0.186 -1.4994  0.0033 -0.8550
 5728SOL    HW218605   7.864   6.188   0.113  1.8338 -0.7108  1.9896
 5729SOL     OW18606   0.207   4.048   1.664 -0.4313 -0.4400 -0.1331
 5729SOL    HW118607   0.158   4.010   1.591 -0.6297 -1.4504  0.5132
 5729SOL    HW218608   0.287   3.995   1.668  0.5488  0.9051 -0.8929
 5730SOL     OW18609   0.598   6.067   3.469 -0.5473  0.3352 -0.1877
 5730SOL    HW118610   0.593   6.039   3.377  1.5227  0.1989 -0.3067
 5730SOL    HW218611   0.651   6.146   3.467 -2.1116  1.4574  0.7173
 5731SOL     OW18612   6.859   2.235   6.017 -0.0746  0.5849  0.3159
 5731SOL    HW118613   6.795   2.239   6.088 -0.2543  0.1436  0.1783
 5731SOL    HW218614   6.871   2.142   6.000 -0.3511  0.6882 -0.5145
 5732SOL     OW18615   4.181   4.464   7.862 -0.4848  0.4867 -0.1910
 5732SOL    HW118616   4.242   4.477   7.790 -0.2820 -0.4959 -0.2192
 5732SOL    HW218617   4.104   4.516   7.839  0.7780  2.7599  0.4476
 5733SOL     OW18618   1.712   2.147   0.640 -0.1290 -0.1669 -0.1576
 5733SOL    HW118619   1.689   2.067   0.687  0.1437  0.9308  1.9340
 5733SOL    HW218620   1.638   2.161   0.580 -2.0758  0.0321  2.1456
 5734SOL     OW18621   7.020   1.119   1.175  0.6288  0.0143 -0.0730
 5734SOL    HW118622   7.002   1.150   1.263 -0.6832  1.9345 -0.9337
 5734SOL    HW218623   6.978   1.034   1.169  1.2451 -0.4032  1.3118
 5735SOL     OW18624   4.845   2.357   5.376 -0.0118  0.2014 -0.9000
 5735SOL    HW118625   4.872   2.322   5.461 -0.7105 -0.0570 -0.7802
 5735SOL    HW218626   4.854   2.284   5.315  0.4344  0.3713 -1.0444
 5736SOL     OW18627   4.332   6.096   1.169 -0.2379 -0.0567  0.1491
 5736SOL    HW118628   4.327   6.014   1.119 -0.9830 -0.7499  1.3128
 5736SOL    HW218629   4.263   6.151   1.133 -0.6629 -0.4871  0.2971
 5737SOL     OW18630   4.650   2.659   5.009 -0.1500  0.1382  0.2884
 5737SOL    HW118631   4.639   2.753   5.022 -1.3761 -0.0200  0.5607
 5737SOL    HW218632   4.657   2.623   5.097 -0.1405 -0.0755  0.2016
 5738SOL     OW18633   3.440   0.168   4.996 -0.2244 -0.8190 -0.6054
 5738SOL    HW118634   3.395   0.197   5.076 -0.5138  0.4272 -1.1877
 5738SOL    HW218635   3.379   0.191   4.926  0.4080 -1.0764 -1.2436
 5739SOL     OW18636   0.634   6.875   3.137 -0.1203 -0.0778 -0.4959
 5739SOL    HW118637   0.690   6.870   3.215 -0.7136 -0.4985 -0.0919
 5739SOL    HW218638   0.696   6.879   3.064  0.4462  0.5806  0.0048
 5740SOL     OW18639   4.191   6.695   4.072  0.0699 -0.2460 -0.2086
 5740SOL    HW118640   4.253   6.636   4.029  0.0664 -0.6100  0.2843
 5740SOL    HW218641   4.123   6.637   4.107  1.4096 -0.2283  2.6067
 5741SOL     OW18642   5.395   7.203   4.734  0.2411 -0.7484 -0.0642
 5741SOL    HW118643   5.302   7.228   4.730 -0.0035 -1.0392  2.3496
 5741SOL    HW218644   5.442   7.285   4.718 -0.4604 -0.1533  0.8081
 5742SOL     OW18645   3.554   5.976   5.775  0.1892 -0.1835  0.1250
 5742SOL    HW118646   3.527   5.950   5.687 -0.4954 -3.6603  1.2396
 5742SOL    HW218647   3.478   5.960   5.830  1.2575 -0.0898  1.6954
 5743SOL     OW18648   3.555   0.706   1.112 -0.5591  0.2029 -0.1157
 5743SOL    HW118649   3.589   0.747   1.191  0.8511  1.5788 -1.3665
 5743SOL    HW218650   3.504   0.631   1.143  1.8541 -0.7002  1.9975
 5744SOL     OW18651   6.532   2.151   5.232 -0.2931 -0.1514 -0.1623
 5744SOL    HW118652   6.548   2.058   5.216 -0.3785 -0.0522 -0.8490
 5744SOL    HW218653   6.584   2.171   5.310  0.9577 -0.4184 -0.8975
 5745SOL     OW18654   7.966   7.574   1.887 -0.6304 -0.5345  0.1994
 5745SOL    HW118655   7.927   7.545   1.969  0.1345  0.8051  1.0610
 5745SOL    HW218656   8.057   7.544   1.891 -0.6064 -0.5271 -0.2062
 5746SOL     OW18657   4.509   2.730   6.488 -0.2721 -0.2015  0.0192
 5746SOL    HW118658   4.475   2.709   6.575  1.2031  1.8191  1.1948
 5746SOL    HW218659   4.438   2.777   6.445 -0.6950 -0.4003  0.4856
 5747SOL     OW18660   5.237   2.398   7.426 -0.0571 -0.3264  0.1393
 5747SOL    HW118661   5.159   2.350   7.400 -0.3891 -1.2988  2.6286
 5747SOL    HW218662   5.308   2.334   7.421  0.0306 -0.2806  0.6583
 5748SOL     OW18663   1.599   1.714   6.187  0.6600  0.0777 -0.2634
 5748SOL    HW118664   1.539   1.778   6.148  1.0805  0.9174  0.4497
 5748SOL    HW218665   1.641   1.672   6.111 -1.7212 -1.4470 -0.8320
 5749SOL     OW18666   5.029   0.321   4.450 -0.4913  0.4631 -0.3665
 5749SOL    HW118667   5.032   0.251   4.515 -0.6528  0.3536 -0.4760
 5749SOL    HW218668   5.115   0.319   4.408 -0.4239  0.4660 -0.2286
 5750SOL     OW18669   3.312   4.963   7.863  0.2411 -0.8301 -0.1924
 5750SOL    HW118670   3.243   4.907   7.899 -0.4265  0.1650  0.1479
 5750SOL    HW218671   3.372   4.903   7.819 -0.2442 -1.8342  0.4727
 5751SOL     OW18672   1.245   0.286   4.564 -0.8547  0.3544  0.0093
 5751SOL    HW118673   1.247   0.228   4.487  1.0021  1.4559 -0.8328
 5751SOL    HW218674   1.281   0.369   4.532  1.6244  0.3375  2.4727
 5752SOL     OW18675   7.809   3.425   6.757 -0.5756 -0.2854  0.1024
 5752SOL    HW118676   7.830   3.498   6.698 -1.7456 -0.4881 -0.5839
 5752SOL    HW218677   7.784   3.468   6.839  2.7254 -0.0235  1.1249
 5753SOL     OW18678   2.006   4.776   2.507  0.1306 -0.3590  0.3769
 5753SOL    HW118679   1.947   4.849   2.489 -0.2990 -0.7921  0.0135
 5753SOL    HW218680   2.041   4.751   2.421  2.1992  1.0027  0.7461
 5754SOL     OW18681   7.149   2.455   4.999  0.1302 -0.3297  0.4707
 5754SOL    HW118682   7.128   2.547   5.011 -0.8812 -0.3535 -0.8979
 5754SOL    HW218683   7.098   2.410   5.066 -3.0803 -0.2310 -1.6779
 5755SOL     OW18684   2.669   5.288   4.685  0.0542 -0.5799 -0.2084
 5755SOL    HW118685   2.585   5.266   4.646 -0.5079  1.0259 -0.0085
 5755SOL    HW218686   2.671   5.240   4.768 -1.0128 -0.0883  0.1268
 5756SOL     OW18687   2.360   7.700   7.130  0.1481  0.3508 -0.1547
 5756SOL    HW118688   2.404   7.637   7.187 -2.2335 -1.2080  0.0864
 5756SOL    HW218689   2.396   7.683   7.043  0.4802 -0.4404  0.1344
 5757SOL     OW18690   5.455   4.491   6.512 -0.3074 -0.0664 -0.0284
 5757SOL    HW118691   5.453   4.446   6.428  0.0402  0.6986 -0.4589
 5757SOL    HW218692   5.388   4.447   6.565 -0.7926 -0.3157 -0.8339
 5758SOL     OW18693   3.974   6.070   4.609 -0.1527  0.5105  0.0054
 5758SOL    HW118694   4.034   6.047   4.538  1.7178  0.3575  1.5467
 5758SOL    HW218695   3.973   5.993   4.666 -0.3522  1.1903  0.9548
 5759SOL     OW18696   4.376   5.455   3.772 -0.1125 -0.1937  0.1138
 5759SOL    HW118697   4.458   5.504   3.771 -0.3070  0.1323  0.0819
 5759SOL    HW218698   4.313   5.515   3.813 -0.1350 -0.7509  0.9168
 5760SOL     OW18699   5.033   1.498   2.994 -0.0972 -0.0764  0.4018
 5760SOL    HW118700   5.026   1.444   2.915  0.3674  0.1132  0.2238
 5760SOL    HW218701   5.003   1.441   3.065 -1.3560  0.0372 -0.0163
 5761SOL     OW18702   7.741   6.270   6.092 -0.4088  0.2252 -0.0377
 5761SOL    HW118703   7.716   6.197   6.149  0.6814 -1.2415 -1.3588
 5761SOL    HW218704   7.681   6.264   6.018  0.7193 -0.3759 -0.9332
 5762SOL     OW18705   5.000   4.280   1.202 -0.4170  0.2440  0.4711
 5762SOL    HW118706   4.977   4.373   1.199  0.0696  0.3548 -0.1868
 5762SOL    HW218707   5.095   4.279   1.216 -0.3515 -0.1451  0.0279
 5763SOL     OW18708   3.887   2.599   3.376  0.4132  0.1180  0.1492
 5763SOL    HW118709   3.832   2.675   3.359  1.7855  0.9730 -0.6260
 5763SOL    HW218710   3.913   2.568   3.289  1.1864 -0.2420  0.4970
 5764SOL     OW18711   0.266   0.257   3.514 -1.1644  0.7688 -0.0604
 5764SOL    HW118712   0.344   0.259   3.458 -1.2621 -1.6055 -0.3758
 5764SOL    HW218713   0.295   0.295   3.597  0.6928 -1.0499  0.2011
 5765SOL     OW18714   2.280   0.630   2.161 -1.4127  0.4332  0.1195
 5765SOL    HW118715   2.193   0.662   2.137 -2.4207 -1.1210  1.4898
 5765SOL    HW218716   2.289   0.547   2.113 -0.3689  0.9253 -0.5695
 5766SOL     OW18717   0.223   3.972   5.604 -0.0388 -0.1857 -0.8205
 5766SOL    HW118718   0.221   3.907   5.535  0.3846 -1.2194  0.1198
 5766SOL    HW218719   0.131   3.993   5.620 -0.1997 -0.8354 -0.8819
 5767SOL     OW18720   1.511   3.659   6.142 -0.7725  0.1948  0.1969
 5767SOL    HW118721   1.494   3.607   6.064  2.9126 -0.0060 -0.6697
 5767SOL    HW218722   1.463   3.614   6.212 -1.3278 -1.7160 -1.3200
 5768SOL     OW18723   3.904   1.836   2.279 -0.4743  0.1828 -0.2415
 5768SOL    HW118724   3.830   1.792   2.236 -0.1584  1.2192 -1.9419
 5768SOL    HW218725   3.937   1.772   2.342 -1.6069 -1.0331 -0.8404
 5769SOL     OW18726   3.779   4.068   0.185 -0.1562 -0.9315  0.5531
 5769SOL    HW118727   3.872   4.063   0.164 -0.2894 -2.6256  0.2773
 5769SOL    HW218728   3.745   4.137   0.129  0.3509 -2.3868 -1.6535
 5770SOL     OW18729   1.770   3.380   6.075 -0.5067 -0.1101  0.1260
 5770SOL    HW118730   1.785   3.384   5.980 -4.9458  1.2178 -0.7433
 5770SOL    HW218731   1.785   3.470   6.105  1.2182 -0.5951  0.8607
 5771SOL     OW18732   6.090   7.439   8.013 -0.4666 -0.2037  0.0872
 5771SOL    HW118733   6.183   7.439   7.989 -0.7223  0.2176 -0.9294
 5771SOL    HW218734   6.088   7.395   8.098  0.5948 -0.7202 -0.1338
 5772SOL     OW18735   3.062   7.310   3.836 -0.1812 -0.2739 -0.3221
 5772SOL    HW118736   3.139   7.359   3.807 -1.0972  2.5783  1.5465
 5772SOL    HW218737   3.084   7.284   3.926 -0.4352 -1.7437 -0.6729
 5773SOL     OW18738   1.248   7.674   3.295 -0.1223  0.0127 -0.0461
 5773SOL    HW118739   1.281   7.740   3.355 -2.0176  0.5915  0.4310
 5773SOL    HW218740   1.252   7.592   3.344 -0.5018  0.2790  0.4422
 5774SOL     OW18741   2.884   8.026   5.721 -0.3733  0.3870 -0.1172
 5774SOL    HW118742   2.943   8.073   5.781  0.4459 -0.5281 -0.1856
 5774SOL    HW218743   2.906   7.934   5.734 -2.3644 -0.0501  0.4536
 5775SOL     OW18744   2.736   7.107   1.065 -0.4105 -0.0469 -0.4237
 5775SOL    HW118745   2.720   7.041   1.132  2.9847 -0.5946  0.0176
 5775SOL    HW218746   2.720   7.191   1.109  0.7184 -0.4340  0.7916
 5776SOL     OW18747   6.517   6.958   3.199 -0.2373 -0.1738  0.1685
 5776SOL    HW118748   6.489   6.957   3.108 -1.7888  0.4795  0.6035
 5776SOL    HW218749   6.600   6.910   3.199 -0.2316 -0.2266 -1.5630
 5777SOL     OW18750   0.038   2.490   0.513  0.3423 -0.6217 -0.4663
 5777SOL    HW118751   0.076   2.445   0.589  1.6170  0.2838 -0.5381
 5777SOL    HW218752  -0.044   2.443   0.496 -0.6626 -0.0587  2.2850
 5778SOL     OW18753   2.507   6.908   2.981  0.3201  0.0374 -0.7250
 5778SOL    HW118754   2.552   6.852   2.918  1.3277 -0.0164  0.0073
 5778SOL    HW218755   2.527   6.868   3.066 -0.5001  0.4521 -0.3336
 5779SOL     OW18756   0.718   5.392   6.867 -0.0258  0.3038 -0.8991
 5779SOL    HW118757   0.774   5.452   6.917 -0.9712  0.9602 -0.5792
 5779SOL    HW218758   0.693   5.442   6.789 -0.3509  0.1166 -0.9197
 5780SOL     OW18759   5.557   2.260   7.135 -0.6137  0.2654  0.5327
 5780SOL    HW118760   5.608   2.332   7.174 -0.2236 -0.1977  0.8852
 5780SOL    HW218761   5.553   2.282   7.042  1.5718 -0.4639  0.2166
 5781SOL     OW18762   0.660   3.664   2.362  0.6286 -0.0692  0.2926
 5781SOL    HW118763   0.578   3.714   2.364  0.0641 -0.9453  0.1574
 5781SOL    HW218764   0.662   3.619   2.446  0.8919 -0.1571  0.2388
 5782SOL     OW18765   2.094   6.181   2.863  0.0593 -0.1349 -0.0345
 5782SOL    HW118766   2.084   6.181   2.768  1.4150 -3.0083 -0.3055
 5782SOL    HW218767   2.188   6.169   2.876  0.2755  2.6466  1.7920
 5783SOL     OW18768   4.566   0.927   3.191 -0.5038 -0.2628 -0.0361
 5783SOL    HW118769   4.604   0.984   3.259  1.2029 -0.7833 -0.4892
 5783SOL    HW218770   4.483   0.898   3.227  0.8827 -1.5121  2.4223
 5784SOL     OW18771   0.078   2.393   1.008 -0.1091 -0.1061  0.2740
 5784SOL    HW118772   0.013   2.423   1.072  0.1484 -1.7371  1.3897
 5784SOL    HW218773   0.111   2.472   0.967 -0.0097  1.0646  2.4754
 5785SOL     OW18774   7.570   3.643   3.981  0.3025  0.3072 -0.0662
 5785SOL    HW118775   7.488   3.656   4.029  0.2027 -0.2092 -0.0835
 5785SOL    HW218776   7.551   3.569   3.922  0.0117  1.7159 -1.8412
 5786SOL     OW18777   0.986   7.631   5.507 -0.1126 -0.3381 -0.2131
 5786SOL    HW118778   0.981   7.648   5.413  0.6234 -1.4575 -0.4756
 5786SOL    HW218779   0.913   7.680   5.544 -0.9343 -0.5695 -1.4703
 5787SOL     OW18780   0.325   5.668   2.265 -0.5751  0.2039  0.3928
 5787SOL    HW118781   0.251   5.664   2.205 -0.1076 -0.8498 -0.1319
 5787SOL    HW218782   0.316   5.753   2.309 -2.4822 -0.2127  0.8767
 5788SOL     OW18783   3.643   5.424   4.102  0.1914 -0.4695 -0.2860
 5788SOL    HW118784   3.599   5.395   4.022 -0.4746 -0.1206 -0.0610
 5788SOL    HW218785   3.611   5.364   4.170  0.2745 -0.3832 -0.1694
 5789SOL     OW18786   7.020   6.366   6.825 -0.3398  0.8383 -0.0566
 5789SOL    HW118787   6.961   6.330   6.758  0.9365 -0.7789 -0.3838
 5789SOL    HW218788   6.989   6.328   6.907  0.3248 -0.1699 -0.2540
 5790SOL     OW18789   2.312   2.309   5.073 -0.1237 -0.3980  0.1353
 5790SOL    HW118790   2.376   2.380   5.078 -1.5889  1.0636 -0.9014
 5790SOL    HW218791   2.270   2.308   5.159 -2.1384  2.0812 -0.6953
 5791SOL     OW18792   1.913   4.275   6.548 -0.1224 -0.2639 -0.8585
 5791SOL    HW118793   1.923   4.190   6.592 -2.8937 -2.2281 -3.5444
 5791SOL    HW218794   1.991   4.282   6.493  0.1141 -1.1039 -0.6535
 5792SOL     OW18795   1.654   4.858   2.955 -0.0463 -0.4686 -0.7381
 5792SOL    HW118796   1.648   4.875   2.861  1.9391  0.0576 -0.8162
 5792SOL    HW218797   1.621   4.938   2.996  1.0588  0.1814 -1.0509
 5793SOL     OW18798   3.536   4.001   7.861  0.2366  0.7361  0.0501
 5793SOL    HW118799   3.527   4.096   7.856 -0.6344  0.9773  3.4916
 5793SOL    HW218800   3.537   3.982   7.955  4.0570 -2.3712 -0.3450
 5794SOL     OW18801   7.868   2.064   2.166 -0.0080  0.2422  0.4812
 5794SOL    HW118802   7.833   1.975   2.162  0.9121 -0.1215  0.2814
 5794SOL    HW218803   7.792   2.121   2.150 -0.4651 -0.5277 -0.1357
 5795SOL     OW18804   5.124   7.405   2.326 -0.3485 -0.1229 -0.3983
 5795SOL    HW118805   5.047   7.457   2.304  0.2541  0.0129 -2.3400
 5795SOL    HW218806   5.102   7.316   2.297 -0.5559 -0.5430  0.9720
 5796SOL     OW18807   7.181   2.328   6.158 -0.2536  0.0590  0.1160
 5796SOL    HW118808   7.139   2.269   6.221  1.5916 -1.1072  0.3266
 5796SOL    HW218809   7.271   2.336   6.188 -0.2729  2.5802 -0.2494
 5797SOL     OW18810   7.325   4.134   0.169  0.1745 -0.0894 -0.5363
 5797SOL    HW118811   7.409   4.156   0.129  0.1136 -2.2415 -2.0226
 5797SOL    HW218812   7.346   4.064   0.231 -0.5425 -0.7899 -1.0770
 5798SOL     OW18813   6.714   5.618   1.838  0.3469 -0.1550 -0.5418
 5798SOL    HW118814   6.621   5.601   1.857  0.3376  0.7994  0.3314
 5798SOL    HW218815   6.739   5.547   1.779  0.0335 -2.5442  2.0022
 5799SOL     OW18816   4.645   0.924   8.043 -0.0536 -0.1900 -0.3451
 5799SOL    HW118817   4.655   0.917   7.948 -1.5031 -0.9171 -0.4663
 5799SOL    HW218818   4.550   0.925   8.057  0.0128  3.3160  0.8547
 5800SOL     OW18819   0.399   1.416   7.937  0.0443  0.2632  0.4749
 5800SOL    HW118820   0.400   1.501   7.894 -0.7038  0.6667  1.2253
 5800SOL    HW218821   0.347   1.360   7.879  1.6193 -0.0897 -0.6926
 5801SOL     OW18822   1.641   0.792   7.494  0.1377 -0.2110  0.5301
 5801SOL    HW118823   1.693   0.806   7.415 -1.7234  0.8157 -0.5682
 5801SOL    HW218824   1.567   0.739   7.465 -0.5471  0.1445  1.5818
 5802SOL     OW18825   0.153   0.998   7.019  0.0606  0.2946 -0.0405
 5802SOL    HW118826   0.213   0.961   7.084 -0.7501 -0.2404  0.4348
 5802SOL    HW218827   0.149   1.091   7.041 -0.4394  0.0682  0.8919
 5803SOL     OW18828   2.185   0.714   4.755 -0.6832  0.3972 -0.6294
 5803SOL    HW118829   2.184   0.782   4.688 -0.3117  0.6788 -0.3530
 5803SOL    HW218830   2.095   0.683   4.760 -0.7099  0.3582 -1.2758
 5804SOL     OW18831   7.530   1.136   7.733 -0.4707 -0.0154  0.3568
 5804SOL    HW118832   7.502   1.197   7.664  0.7458  0.5024  0.2778
 5804SOL    HW218833   7.452   1.087   7.756 -1.3712  1.2313  0.0511
 5805SOL     OW18834   4.923   7.857   1.737  0.0995  0.2600 -0.1756
 5805SOL    HW118835   4.885   7.783   1.689 -1.4192  1.3056 -0.6689
 5805SOL    HW218836   4.907   7.933   1.682  3.9102  0.7295 -0.9073
 5806SOL     OW18837   1.511   3.748   0.453  0.1182 -0.1416  0.1365
 5806SOL    HW118838   1.549   3.716   0.371  1.0485 -0.7300  0.7786
 5806SOL    HW218839   1.443   3.809   0.425 -0.3854 -1.2239 -1.0812
 5807SOL     OW18840   4.580   4.991   7.458 -0.3825 -0.1145  0.0408
 5807SOL    HW118841   4.663   5.038   7.471  0.2010 -1.0336 -0.2543
 5807SOL    HW218842   4.534   5.042   7.391  0.1439  0.1691 -0.1149
 5808SOL     OW18843   5.192   6.229   1.118  0.2037 -0.3034 -0.1367
 5808SOL    HW118844   5.158   6.237   1.029  0.2322  1.5667 -0.0074
 5808SOL    HW218845   5.141   6.292   1.169  1.0004 -0.4857  0.9257
 5809SOL     OW18846   0.583   2.942   1.605  0.1309  0.8196  0.0844
 5809SOL    HW118847   0.534   2.926   1.525 -0.1472 -2.2274  0.7462
 5809SOL    HW218848   0.671   2.965   1.575 -0.2998  1.0360 -1.0551
 5810SOL     OW18849   7.317   6.611   3.909  0.0430  0.1749  0.1872
 5810SOL    HW118850   7.370   6.583   3.835 -1.7234 -3.0218 -0.0413
 5810SOL    HW218851   7.350   6.558   3.983 -1.5432 -0.5104  0.4409
 5811SOL     OW18852   0.740   4.997   6.172 -0.4547  0.2161 -0.4537
 5811SOL    HW118853   0.759   5.084   6.137  0.5164 -0.3260 -1.3531
 5811SOL    HW218854   0.647   4.999   6.192 -0.1423  2.0214  1.1971
 5812SOL     OW18855   2.090   4.309   4.059 -0.1472 -0.1498  0.0764
 5812SOL    HW118856   2.173   4.261   4.060  0.0887  0.2658  0.6956
 5812SOL    HW218857   2.098   4.369   3.985 -0.3021 -0.8093 -0.4834
 5813SOL     OW18858   5.375   6.992   5.557  0.1335  0.4823 -0.0963
 5813SOL    HW118859   5.301   6.930   5.558  0.0767  0.5094 -1.1596
 5813SOL    HW218860   5.377   7.028   5.645 -1.8117  1.2680 -0.3203
 5814SOL     OW18861   5.549   5.452   5.783 -0.2318 -0.4716 -0.7529
 5814SOL    HW118862   5.581   5.488   5.701  1.4928 -2.7936 -1.2058
 5814SOL    HW218863   5.626   5.452   5.841  0.5590 -4.9162 -1.4025
 5815SOL     OW18864   2.380   4.031   1.835  0.1388  0.1008  0.2792
 5815SOL    HW118865   2.324   3.971   1.884 -0.2356 -0.4340 -0.7617
 5815SOL    HW218866   2.457   4.043   1.890  1.1457 -2.9211 -0.2665
 5816SOL     OW18867   6.251   4.672   7.296 -0.7931  0.5873 -0.5330
 5816SOL    HW118868   6.169   4.722   7.292 -0.9622  0.2729 -1.1677
 5816SOL    HW218869   6.275   4.658   7.204  1.0163  2.3537 -0.4242
 5817SOL     OW18870   3.345   6.190   3.509 -0.1794  0.1840  0.2558
 5817SOL    HW118871   3.381   6.147   3.586 -0.6306  0.3471  0.5636
 5817SOL    HW218872   3.414   6.251   3.481  0.3871 -0.6053 -0.0835
 5818SOL     OW18873   6.748   0.816   2.611  0.5739  0.4601 -0.4663
 5818SOL    HW118874   6.745   0.854   2.699 -0.6420  0.0338 -0.3007
 5818SOL    HW218875   6.813   0.746   2.616 -0.3101 -0.3181  0.4257
 5819SOL     OW18876   5.779   3.112   0.003  0.0941  0.1075 -0.2276
 5819SOL    HW118877   5.815   3.028   0.030  1.6242  0.4927 -0.9566
 5819SOL    HW218878   5.855   3.163  -0.025 -0.8318  1.6249 -0.1114
 5820SOL     OW18879   2.359   4.637   2.662 -0.9514 -0.4573 -0.1970
 5820SOL    HW118880   2.335   4.655   2.571  2.7970 -0.4216 -1.3646
 5820SOL    HW218881   2.334   4.717   2.709 -0.7811  0.5498 -1.7194
 5821SOL     OW18882   8.046   0.607   0.283 -0.1835  0.2678  0.4747
 5821SOL    HW118883   8.034   0.560   0.365  1.4484  0.5205  0.9046
 5821SOL    HW218884   8.119   0.562   0.240 -0.6743  0.4608 -0.5947
 5822SOL     OW18885   6.049   7.530   4.582  0.0661 -0.9004 -0.2724
 5822SOL    HW118886   6.016   7.592   4.647 -0.9120 -2.0234  0.3578
 5822SOL    HW218887   6.026   7.444   4.618  1.2344 -1.6287 -1.1889
 5823SOL     OW18888   5.181   1.803   6.075  0.0528  0.7551 -0.5531
 5823SOL    HW118889   5.142   1.891   6.073 -1.1245  0.2451 -1.9826
 5823SOL    HW218890   5.247   1.806   6.006 -0.3526  0.3690 -0.9610
 5824SOL     OW18891   1.551   0.220   5.400 -0.6508  0.5549  0.3805
 5824SOL    HW118892   1.527   0.174   5.480  1.6896 -0.4503  0.6070
 5824SOL    HW218893   1.645   0.238   5.410 -0.4862  1.1617 -1.7602
 5825SOL     OW18894   7.361   7.819   3.439 -0.1007 -0.0803 -0.0870
 5825SOL    HW118895   7.400   7.890   3.388  0.5694 -2.7102 -3.6060
 5825SOL    HW218896   7.435   7.764   3.465 -0.8088 -0.8367  0.3751
 5826SOL     OW18897   0.442   3.250   0.244  0.0745  0.0533  0.1644
 5826SOL    HW118898   0.471   3.213   0.328  1.2829  2.8619  1.0979
 5826SOL    HW218899   0.522   3.286   0.205 -0.8052  0.4636 -1.3350
 5827SOL     OW18900   6.061   2.284   6.940 -0.3901 -0.3277  0.6389
 5827SOL    HW118901   6.018   2.241   7.014 -1.3024 -2.2669 -0.9250
 5827SOL    HW218902   6.147   2.242   6.935 -1.3814 -2.3394 -1.0558
 5828SOL     OW18903   1.924   0.703   0.576  0.8560  0.2183  0.7958
 5828SOL    HW118904   2.019   0.712   0.567  0.6809  0.3724 -1.4577
 5828SOL    HW218905   1.907   0.611   0.556  0.3595  0.6852 -1.1139
 5829SOL     OW18906   2.058   3.879   7.357  0.0605  0.0628 -0.2458
 5829SOL    HW118907   2.080   3.801   7.307 -0.4397  0.8539 -1.7634
 5829SOL    HW218908   1.985   3.851   7.412  1.9107 -1.3732  1.6325
 5830SOL     OW18909   5.898   1.186   3.971 -0.4107 -0.1333 -0.2234
 5830SOL    HW118910   5.915   1.269   4.017  0.9318 -0.7252  0.4049
 5830SOL    HW218911   5.866   1.127   4.038 -0.3288 -0.4330 -0.4462
 5831SOL     OW18912   2.936   7.732   6.990 -0.3953  0.0057 -0.5604
 5831SOL    HW118913   2.995   7.732   6.914  0.1549  1.5757 -0.1772
 5831SOL    HW218914   2.941   7.821   7.023  0.6708 -1.0139  2.3042
 5832SOL     OW18915   1.358   0.155   1.338  0.6935 -0.1077 -0.1817
 5832SOL    HW118916   1.310   0.237   1.325  0.5480  0.3421  2.4937
 5832SOL    HW218917   1.448   0.174   1.312  0.6367  0.8813  0.3298
 5833SOL     OW18918   7.716   3.660   2.677 -0.3170 -0.3358 -0.4826
 5833SOL    HW118919   7.810   3.640   2.683 -0.7250 -1.8998  1.9622
 5833SOL    HW218920   7.704   3.738   2.731 -0.4873 -0.3704 -0.4698
 5834SOL     OW18921   7.349   5.257   1.699  0.5838 -0.3123  0.3771
 5834SOL    HW118922   7.362   5.288   1.789  0.5541 -0.0441  0.2889
 5834SOL    HW218923   7.256   5.235   1.694  0.6838 -0.8008  0.5578
 5835SOL     OW18924   3.661   0.555   3.502 -0.1151  0.2117  0.2636
 5835SOL    HW118925   3.752   0.547   3.531 -0.1398 -0.3990  0.1810
 5835SOL    HW218926   3.637   0.468   3.471 -1.0963  0.0517  1.3779
 5836SOL     OW18927   2.003   1.834   7.637 -0.0669  0.1015 -0.1372
 5836SOL    HW118928   1.994   1.785   7.555  0.1948 -0.5416  0.2139
 5836SOL    HW218929   1.919   1.879   7.647 -0.1053  0.1870 -0.7509
 5837SOL     OW18930   7.679   2.188   1.440  0.2776 -0.7664 -1.1644
 5837SOL    HW118931   7.693   2.148   1.526 -0.2584  1.5612  0.0994
 5837SOL    HW218932   7.763   2.179   1.395  0.8319 -1.2519 -0.0595
 5838SOL     OW18933   1.087   7.064   2.234  0.5929  0.3092  0.2807
 5838SOL    HW118934   1.180   7.059   2.212  0.3910 -1.2632 -0.3268
 5838SOL    HW218935   1.081   7.026   2.322  0.6615  1.5493  0.8474
 5839SOL     OW18936   8.058   0.843   4.270 -0.0698  0.5854 -0.5230
 5839SOL    HW118937   7.997   0.803   4.333  1.9330  0.9186  1.7715
 5839SOL    HW218938   8.124   0.775   4.253  1.5814  1.7534  0.8991
 5840SOL     OW18939   6.318   5.118   5.945 -0.1047  0.1099 -0.3602
 5840SOL    HW118940   6.409   5.144   5.932  0.8717 -1.2381  2.7171
 5840SOL    HW218941   6.320   5.022   5.939 -1.5131  0.1006 -1.0460
 5841SOL     OW18942   1.315   1.710   7.770  0.4381  0.0483 -0.0810
 5841SOL    HW118943   1.271   1.674   7.693 -2.0118  0.2645  1.1319
 5841SOL    HW218944   1.266   1.790   7.790  1.7513  0.6080  1.0542
 5842SOL     OW18945   1.429   0.430   5.713 -0.3618  0.5703  0.4050
 5842SOL    HW118946   1.360   0.410   5.650  0.7602 -0.7155 -0.4522
 5842SOL    HW218947   1.381   0.461   5.791 -1.9575 -1.1168  0.1559
 5843SOL     OW18948   0.274   1.846   3.649  0.1953  0.4295 -0.4703
 5843SOL    HW118949   0.291   1.756   3.623  1.2219  0.9080 -1.5204
 5843SOL    HW218950   0.275   1.844   3.745  0.5983 -0.6011 -0.4882
 5844SOL     OW18951   5.537   7.833   0.794  0.6869  0.4429 -0.3589
 5844SOL    HW118952   5.567   7.859   0.707 -1.1579  0.9551 -0.8734
 5844SOL    HW218953   5.462   7.776   0.778 -1.3837  2.6328  0.8506
 5845SOL     OW18954   3.711   4.849   1.420  0.1186 -0.0541  0.3930
 5845SOL    HW118955   3.765   4.780   1.381 -1.1181 -1.1307  0.5035
 5845SOL    HW218956   3.621   4.815   1.416 -0.4232  1.1704  1.2746
 5846SOL     OW18957   2.148   1.045   5.223 -0.1315  0.3624  0.0963
 5846SOL    HW118958   2.097   0.976   5.181 -2.3309  1.6110  0.5304
 5846SOL    HW218959   2.192   1.090   5.151 -1.0385  0.3005 -0.5158
 5847SOL     OW18960   3.164   5.507   3.486 -0.8899 -0.8189 -0.4923
 5847SOL    HW118961   3.101   5.517   3.556 -1.1194 -0.3707 -0.7599
 5847SOL    HW218962   3.156   5.587   3.434  0.8559 -0.1357  0.2331
 5848SOL     OW18963   5.916   3.913   7.256 -0.2640 -0.4434 -0.1104
 5848SOL    HW118964   5.864   3.939   7.332 -0.6558  2.9761 -1.3675
 5848SOL    HW218965   5.877   3.830   7.228 -1.7754 -0.4851  1.8776
 5849SOL     OW18966   6.978   3.253   1.218  0.4089  0.2224 -0.4592
 5849SOL    HW118967   7.061   3.211   1.239 -0.4814 -3.2622 -3.0320
 5849SOL    HW218968   6.914   3.211   1.276  0.0698  1.2594 -0.0505
 5850SOL     OW18969   7.697   0.781   2.908  0.0439  0.7535  0.1453
 5850SOL    HW118970   7.688   0.821   2.995 -1.2219 -0.2592  0.5089
 5850SOL    HW218971   7.765   0.715   2.919  0.6079  1.3127  0.0900
 5851SOL     OW18972   6.376   1.587   6.906  0.0987 -0.3742  0.9049
 5851SOL    HW118973   6.451   1.640   6.935  0.4320 -0.7490  0.7331
 5851SOL    HW218974   6.382   1.587   6.810 -1.8946  2.1828  0.6579
 5852SOL     OW18975   0.681   5.965   1.811 -0.6133 -0.1308  0.4776
 5852SOL    HW118976   0.625   5.911   1.867  0.1424  0.8927  2.2920
 5852SOL    HW218977   0.743   6.006   1.871  1.0130  0.0938 -1.2801
 5853SOL     OW18978   3.125   7.730   3.821 -0.0375  0.4217 -0.9317
 5853SOL    HW118979   3.198   7.676   3.849 -0.9780 -0.2327  0.3623
 5853SOL    HW218980   3.114   7.794   3.892 -1.8439 -0.6376 -0.2003
 5854SOL     OW18981   0.139   3.921   6.963 -0.3310  0.1588 -0.4635
 5854SOL    HW118982   0.224   3.899   6.926 -0.8206 -0.6335 -1.1664
 5854SOL    HW218983   0.132   3.868   7.042  0.4626  1.3933  0.4617
 5855SOL     OW18984   5.422   2.799   4.849 -0.4212  0.0128 -0.2293
 5855SOL    HW118985   5.354   2.813   4.782 -0.7107  0.3413  0.1293
 5855SOL    HW218986   5.391   2.723   4.898 -2.1154  1.8852  1.8514
 5856SOL     OW18987   2.904   7.158   5.299 -0.5603  0.1103 -0.7855
 5856SOL    HW118988   2.860   7.237   5.329 -2.2586 -1.2714  0.5851
 5856SOL    HW218989   2.993   7.186   5.278 -0.2393  1.8565  2.4271
 5857SOL     OW18990   1.175   4.584   1.866 -0.1251  0.2367 -0.2634
 5857SOL    HW118991   1.101   4.636   1.835  1.0501  1.8215 -0.5170
 5857SOL    HW218992   1.163   4.579   1.961 -1.3485 -0.8340 -0.4478
 5858SOL     OW18993   5.195   7.648   4.401 -0.5695  0.6112  0.8134
 5858SOL    HW118994   5.216   7.674   4.491  2.3140 -0.0162  0.4499
 5858SOL    HW218995   5.281   7.636   4.360 -1.8006  0.4042 -1.9032
 5859SOL     OW18996   2.937   1.761   8.014 -0.2375 -0.2444 -0.3071
 5859SOL    HW118997   2.980   1.839   8.049 -1.7800  0.5158 -0.0041
 5859SOL    HW218998   2.989   1.737   7.938  0.8586  0.4670  0.1822
 5860SOL     OW18999   6.715   3.796   7.263  0.4075 -0.1869  0.5864
 5860SOL    HW119000   6.649   3.838   7.318 -0.4194 -1.2960  0.4785
 5860SOL    HW219001   6.688   3.704   7.260  1.0577 -0.3505 -0.7721
 5861SOL     OW19002   5.620   2.524   0.885  0.4678  0.4797 -0.2302
 5861SOL    HW119003   5.576   2.503   0.803 -0.1717  1.4060 -0.1379
 5861SOL    HW219004   5.629   2.440   0.930  0.7332 -0.0235 -1.1943
 5862SOL     OW19005   2.052   6.771   7.358  0.3651 -0.0761  0.1354
 5862SOL    HW119006   1.983   6.837   7.361 -0.2363 -0.6852 -0.0910
 5862SOL    HW219007   2.120   6.810   7.304 -0.1384  0.2111 -0.2970
 5863SOL     OW19008   7.046   4.196   3.040 -0.1204  0.0609  0.5605
 5863SOL    HW119009   7.019   4.151   3.120 -0.1514 -1.3128 -0.1966
 5863SOL    HW219010   7.059   4.126   2.976  1.9386  0.9553 -0.0764
 5864SOL     OW19011   2.207   4.604   3.494  0.5231 -0.2318  0.0870
 5864SOL    HW119012   2.238   4.650   3.572 -1.5466 -0.6884  1.2547
 5864SOL    HW219013   2.207   4.512   3.518  0.3335 -0.4287 -0.6419
 5865SOL     OW19014   2.101   2.242   0.853  0.5997  0.1632  0.3186
 5865SOL    HW119015   2.179   2.191   0.875  1.0709  0.1663 -1.2735
 5865SOL    HW219016   2.106   2.319   0.909  0.9572 -0.5366  1.2765
 5866SOL     OW19017   4.260   5.266   7.922 -0.4147  0.2505 -0.7237
 5866SOL    HW119018   4.312   5.197   7.881  1.1055  1.4384 -0.8840
 5866SOL    HW219019   4.312   5.295   7.997 -1.3174  0.7966 -0.2863
 5867SOL     OW19020   0.036   7.399   0.804  0.0302  0.1224 -0.2636
 5867SOL    HW119021   0.033   7.360   0.891  0.4449  0.6284 -0.0120
 5867SOL    HW219022   0.115   7.453   0.806  0.0579  0.1110 -0.9654
 5868SOL     OW19023   2.838   6.973   0.258  0.2752 -0.1791  0.2221
 5868SOL    HW119024   2.908   6.913   0.284  0.7142  0.0636 -0.3816
 5868SOL    HW219025   2.852   6.987   0.164 -1.6815 -1.5779 -0.3460
 5869SOL     OW19026   7.704   7.946   6.364 -0.5441 -0.1660 -0.0398
 5869SOL    HW119027   7.627   7.956   6.308 -0.3506 -0.2200 -0.3160
 5869SOL    HW219028   7.752   8.028   6.352 -1.2522  0.4619  1.1982
 5870SOL     OW19029   7.374   2.852   0.044 -0.3125 -0.1814  0.2257
 5870SOL    HW119030   7.427   2.778   0.073  2.7753  1.9503  0.5172
 5870SOL    HW219031   7.413   2.878  -0.040 -1.6562  0.7953 -0.1309
 5871SOL     OW19032   4.618   0.831   0.369  0.0716 -0.1072  0.2143
 5871SOL    HW119033   4.625   0.870   0.456 -0.6002 -1.1889  0.7768
 5871SOL    HW219034   4.586   0.902   0.314 -1.3588  0.1064  1.2613
 5872SOL     OW19035   5.694   0.810   2.186  0.2422 -0.1271 -0.3045
 5872SOL    HW119036   5.600   0.813   2.166  0.1682  2.1691  0.1265
 5872SOL    HW219037   5.724   0.728   2.147 -1.9607 -1.0027 -0.3136
 5873SOL     OW19038   7.254   3.101   3.468  0.0979  0.3779 -0.0592
 5873SOL    HW119039   7.339   3.057   3.459  0.3030  0.1708  2.2839
 5873SOL    HW219040   7.192   3.043   3.424  1.0968  0.3407 -1.4699
 5874SOL     OW19041   2.751   3.443   3.391  0.0720 -0.1457 -0.7536
 5874SOL    HW119042   2.816   3.378   3.415 -0.5351 -0.4262  0.2161
 5874SOL    HW219043   2.670   3.413   3.433 -0.0534  1.5937  0.3542
 5875SOL     OW19044   0.147   6.183   2.936 -0.0409 -0.4626  0.1117
 5875SOL    HW119045   0.190   6.189   3.021 -0.7173  0.4168  0.4030
 5875SOL    HW219046   0.133   6.274   2.909 -0.0596 -0.7318 -0.8275
 5876SOL     OW19047   4.138   3.075   0.893 -0.0287  0.1709 -0.2603
 5876SOL    HW119048   4.155   3.042   0.805  2.0750 -0.5331  0.3443
 5876SOL    HW219049   4.168   3.166   0.891  0.3700  0.0432 -0.1840
 5877SOL     OW19050   5.382   5.645   7.531  0.5814 -0.4065  0.2008
 5877SOL    HW119051   5.363   5.639   7.624  0.5603 -0.7948  0.1732
 5877SOL    HW219052   5.406   5.555   7.505 -3.2615 -1.2848 -1.0113
 5878SOL     OW19053   2.852   3.490   6.821 -0.1353  0.5307 -0.0034
 5878SOL    HW119054   2.863   3.419   6.884 -0.7302 -0.9940 -1.5434
 5878SOL    HW219055   2.769   3.531   6.847  0.2184  0.7083  0.9052
 5879SOL     OW19056   4.984   4.173   6.481 -0.5231  0.2628 -0.1681
 5879SOL    HW119057   4.921   4.230   6.526 -1.1442  0.1613 -0.8893
 5879SOL    HW219058   5.021   4.229   6.413  1.8518  1.0244  1.6191
 5880SOL     OW19059   8.002   0.681   2.964  0.5032  0.0138  0.3942
 5880SOL    HW119060   8.015   0.597   2.920  0.3066  0.3375 -0.2862
 5880SOL    HW219061   8.072   0.736   2.932  0.3690  0.2488  0.5015
 5881SOL     OW19062   5.750   7.209   7.281  0.2183  0.0928 -0.2581
 5881SOL    HW119063   5.819   7.143   7.283  0.5377  0.3695 -1.3646
 5881SOL    HW219064   5.672   7.161   7.253 -0.6199 -0.6672  2.9733
 5882SOL     OW19065   1.283   6.581   4.940  0.4248 -0.1770  0.1208
 5882SOL    HW119066   1.345   6.510   4.959  0.3631 -0.6556 -1.3203
 5882SOL    HW219067   1.322   6.627   4.865  1.4226  2.5364  2.1248
 5883SOL     OW19068   7.773   4.505   6.013  0.0145 -0.1237 -0.2965
 5883SOL    HW119069   7.860   4.530   6.047 -0.1817 -0.3437  0.3934
 5883SOL    HW219070   7.752   4.572   5.948  0.2449  0.5384  0.2939
 5884SOL     OW19071   1.174   6.917   0.944  0.2516 -0.3891 -0.5162
 5884SOL    HW119072   1.207   6.997   0.984 -0.2307  0.1467 -1.1596
 5884SOL    HW219073   1.164   6.856   1.017 -1.0198  0.7045  0.2701
 5885SOL     OW19074   6.034   7.543   3.141  0.3881  0.7094  1.0272
 5885SOL    HW119075   5.973   7.509   3.076  0.2019  0.2008  1.4612
 5885SOL    HW219076   5.979   7.566   3.216  0.5615  1.6132  0.8788
 5886SOL     OW19077   1.588   5.680   1.859  0.4129  0.6893  0.6220
 5886SOL    HW119078   1.626   5.634   1.933  2.7828  0.2769 -0.7447
 5886SOL    HW219079   1.570   5.610   1.795  0.3508  1.2359  0.0309
 5887SOL     OW19080   4.306   4.231   5.187  0.2953  0.2788 -0.4269
 5887SOL    HW119081   4.233   4.178   5.219 -0.1958 -0.4684 -2.6352
 5887SOL    HW219082   4.305   4.309   5.243  2.1356 -2.5552  4.1964
 5888SOL     OW19083   6.265   3.496   1.694 -0.0897 -0.0174  0.3713
 5888SOL    HW119084   6.348   3.492   1.647  0.0975  1.4082  0.5487
 5888SOL    HW219085   6.200   3.514   1.626 -0.2366 -0.9070  0.2646
 5889SOL     OW19086   7.173   3.422   7.152  0.3007 -0.1759  1.0746
 5889SOL    HW119087   7.179   3.517   7.158 -1.6553 -0.0042  1.1274
 5889SOL    HW219088   7.243   3.396   7.092  0.9626  1.2625  1.1944
 5890SOL     OW19089   2.807   2.665   2.900  0.9217 -0.4882  0.4012
 5890SOL    HW119090   2.814   2.757   2.877  1.1596 -0.2902  1.2610
 5890SOL    HW219091   2.846   2.658   2.986  1.9398 -1.5936 -0.1191
 5891SOL     OW19092   6.330   1.510   4.141  0.1964 -0.1564  0.6294
 5891SOL    HW119093   6.303   1.602   4.142  1.7961  0.4100 -1.4480
 5891SOL    HW219094   6.343   1.488   4.233 -2.5744  0.9052  1.3732
 5892SOL     OW19095   7.513   6.823   6.441  0.2200 -0.4314  0.1538
 5892SOL    HW119096   7.427   6.803   6.403 -0.2802  0.3272  0.8482
 5892SOL    HW219097   7.494   6.846   6.532  1.2594 -1.0255  0.5284
 5893SOL     OW19098   7.812   1.723   7.770 -0.2508  0.4708 -0.0529
 5893SOL    HW119099   7.871   1.788   7.730 -0.9784  0.4882 -1.1256
 5893SOL    HW219100   7.763   1.773   7.835 -1.1462  1.1230 -1.2088
 5894SOL     OW19101   0.353   5.400   5.652 -0.4450 -0.1119  0.4458
 5894SOL    HW119102   0.306   5.466   5.600 -1.2499  0.1771  1.5071
 5894SOL    HW219103   0.286   5.334   5.672 -0.0101 -0.4864  0.6801
 5895SOL     OW19104   0.072   0.452   7.201  0.1528  0.1039  0.1882
 5895SOL    HW119105   0.063   0.380   7.139  1.8850 -0.6754  0.7585
 5895SOL    HW219106   0.010   0.432   7.271  1.0164 -1.2001  0.6260
 5896SOL     OW19107   5.090   5.642   0.907  0.8763  0.0773 -0.2463
 5896SOL    HW119108   5.082   5.737   0.916  1.0981  0.0715  0.0257
 5896SOL    HW219109   5.048   5.607   0.986  0.7875 -0.0529 -0.3500
 5897SOL     OW19110   6.859   2.382   3.076  0.0294  0.1740 -0.7895
 5897SOL    HW119111   6.902   2.361   2.993  3.4775  1.7822  0.4361
 5897SOL    HW219112   6.818   2.467   3.060 -1.6725 -0.7359 -1.5489
 5898SOL     OW19113   4.164   6.616   7.574  0.9151 -0.3338  0.2315
 5898SOL    HW119114   4.136   6.587   7.488  1.0556  1.1791 -0.3615
 5898SOL    HW219115   4.126   6.703   7.584  1.4855 -0.1876  1.3981
 5899SOL     OW19116   3.823   2.410   6.721 -0.1619  0.4959 -0.3708
 5899SOL    HW119117   3.796   2.379   6.634 -1.1971  1.8774 -0.5834
 5899SOL    HW219118   3.901   2.464   6.704 -0.4985  0.9539 -0.4900
 5900SOL     OW19119   3.436   4.246   3.743 -0.2784 -0.0158 -0.2877
 5900SOL    HW119120   3.348   4.263   3.776 -0.8981 -0.1807 -1.8094
 5900SOL    HW219121   3.427   4.242   3.648  1.4317  0.2895 -0.5067
 5901SOL     OW19122   2.245   6.185   1.466 -0.2772  0.0179 -0.1975
 5901SOL    HW119123   2.292   6.244   1.408  0.4153  0.3017  0.6217
 5901SOL    HW219124   2.184   6.241   1.513  2.1003  0.6722  2.4250
 5902SOL     OW19125   0.406   5.496   2.450  0.2183  0.3538 -0.3308
 5902SOL    HW119126   0.330   5.471   2.504 -0.5486  0.3222 -1.3936
 5902SOL    HW219127   0.373   5.566   2.394  0.9362  0.2344 -0.9057
 5903SOL     OW19128   5.241   4.281   3.063 -0.0570  0.2925  0.3366
 5903SOL    HW119129   5.154   4.290   3.025 -1.3437 -2.7001  2.2237
 5903SOL    HW219130   5.231   4.312   3.153  1.1591  0.9025  0.2816
 5904SOL     OW19131   3.155   4.094   4.440  0.4089 -0.3827 -0.4960
 5904SOL    HW119132   3.208   4.160   4.486 -0.3254 -0.8792  1.1606
 5904SOL    HW219133   3.217   4.025   4.418  0.9175  0.2049 -0.9313
 5905SOL     OW19134   1.381   3.105   1.073  0.1921 -0.3254  0.3773
 5905SOL    HW119135   1.445   3.145   1.132  0.8273 -1.0180  0.1754
 5905SOL    HW219136   1.352   3.026   1.119 -2.3854  1.1945  1.5796
 5906SOL     OW19137   3.885   7.760   5.159  0.3062  0.7359  0.0482
 5906SOL    HW119138   3.928   7.727   5.080  0.4206  1.2893 -0.1249
 5906SOL    HW219139   3.919   7.848   5.170 -1.5818  1.6380 -0.7505
 5907SOL     OW19140   6.780   7.119   0.370 -0.4865 -0.3362  0.1109
 5907SOL    HW119141   6.840   7.052   0.336  0.3746  0.1448  0.6272
 5907SOL    HW219142   6.831   7.163   0.438 -0.4043  1.9257 -1.3120
 5908SOL     OW19143   3.757   0.952   6.206  0.1327  0.2757 -0.4532
 5908SOL    HW119144   3.673   0.947   6.252  0.8281  0.7725  0.9278
 5908SOL    HW219145   3.808   0.879   6.241  0.2465 -0.1209 -1.4046
 5909SOL     OW19146   0.753   4.756   1.641  1.0091  0.5418 -0.1390
 5909SOL    HW119147   0.700   4.791   1.713  1.1632  1.1568 -0.3190
 5909SOL    HW219148   0.692   4.749   1.568  0.1994 -2.4781  0.6851
 5910SOL     OW19149   4.542   4.787   5.591 -0.2477  0.5486  0.1467
 5910SOL    HW119150   4.542   4.868   5.541 -0.7868 -0.5775 -1.7835
 5910SOL    HW219151   4.583   4.723   5.533 -1.2093 -0.8986  0.9875
 5911SOL     OW19152   5.146   4.358   3.296 -0.6808 -0.0690  0.0966
 5911SOL    HW119153   5.157   4.407   3.377  1.0395  1.8759 -1.1948
 5911SOL    HW219154   5.064   4.390   3.259 -3.1588 -3.2161  2.3972
 5912SOL     OW19155   2.630   4.678   2.723 -0.2508 -0.3713 -0.0462
 5912SOL    HW119156   2.609   4.670   2.816  0.6835  0.5550  0.2575
 5912SOL    HW219157   2.545   4.669   2.679 -0.9056  0.4964  0.9783
 5913SOL     OW19158   3.958   1.488   6.964 -0.1422 -0.5808 -0.1664
 5913SOL    HW119159   3.931   1.456   7.050 -0.8383 -1.4644 -0.6945
 5913SOL    HW219160   3.929   1.420   6.903 -0.4224  0.4235 -1.1875
 5914SOL     OW19161   6.432   0.669   3.003  0.2470 -0.6144  0.1896
 5914SOL    HW119162   6.417   0.575   3.014  1.1350 -0.8165 -0.2214
 5914SOL    HW219163   6.511   0.687   3.053 -1.1052  0.3748  2.0969
 5915SOL     OW19164   0.706   2.734   3.969  0.0236  0.3845  0.5365
 5915SOL    HW119165   0.701   2.754   3.876 -0.2946 -1.0642  0.2173
 5915SOL    HW219166   0.796   2.705   3.983  0.6827  2.5301  1.1339
 5916SOL     OW19167   3.834   1.590   3.801  0.2601 -0.5965  0.7460
 5916SOL    HW119168   3.770   1.519   3.795  0.2866 -0.5656  0.1168
 5916SOL    HW219169   3.918   1.547   3.788  0.1836 -0.2455 -1.1817
 5917SOL     OW19170   6.123   5.910   3.811  0.3894 -0.0663 -0.5742
 5917SOL    HW119171   6.117   5.954   3.896  1.6723  0.7281 -0.8729
 5917SOL    HW219172   6.179   5.834   3.828 -0.5247 -0.7289 -0.4165
 5918SOL     OW19173   1.151   0.890   7.144 -0.1753 -0.1229 -0.8506
 5918SOL    HW119174   1.111   0.823   7.088  0.2801 -1.2874  0.1825
 5918SOL    HW219175   1.093   0.897   7.219  0.2617 -0.0329 -0.5161
 5919SOL     OW19176   5.335   4.501   3.552  0.5600 -0.1171 -0.2817
 5919SOL    HW119177   5.396   4.573   3.539  0.9950 -0.3364  0.4617
 5919SOL    HW219178   5.389   4.422   3.546 -0.0375 -0.4550 -1.8982
 5920SOL     OW19179   2.800   0.169   5.256  0.2911 -0.5318 -0.4138
 5920SOL    HW119180   2.707   0.188   5.269 -0.1106 -2.9238  0.8146
 5920SOL    HW219181   2.836   0.159   5.344  1.9363  1.1161 -0.8443
 5921SOL     OW19182   2.990   4.443   3.203  0.1534 -0.2606 -0.3126
 5921SOL    HW119183   2.983   4.437   3.108 -0.1702 -1.0106 -0.2445
 5921SOL    HW219184   3.005   4.353   3.232  1.3829  0.1027  0.2600
 5922SOL     OW19185   3.510   7.082   5.642  0.0685  0.2658 -0.2318
 5922SOL    HW119186   3.561   7.051   5.567 -0.1330  0.7299 -0.5602
 5922SOL    HW219187   3.567   7.066   5.717  0.8102  1.0152 -0.6184
 5923SOL     OW19188   6.461   2.292   0.083  0.7306  0.5998  0.0386
 5923SOL    HW119189   6.498   2.332   0.004 -0.6910  0.5973 -0.6534
 5923SOL    HW219190   6.421   2.365   0.131  0.0293  0.3383 -0.1399
 5924SOL     OW19191   4.002   5.764   3.110 -0.1409 -0.3230  0.0653
 5924SOL    HW119192   4.093   5.761   3.138 -0.2306 -0.2411  0.3654
 5924SOL    HW219193   3.997   5.843   3.056 -0.5145  0.8847  1.7697
 5925SOL     OW19194   4.746   5.548   4.276 -0.1483 -0.6137  0.4690
 5925SOL    HW119195   4.733   5.618   4.340  0.9186 -1.2010  1.3683
 5925SOL    HW219196   4.727   5.589   4.191 -3.3347 -0.2774  1.2155
 5926SOL     OW19197   1.494   0.992   2.700  0.0177  0.1242  0.0118
 5926SOL    HW119198   1.450   1.044   2.633  1.1427 -1.0208 -1.6860
 5926SOL    HW219199   1.425   0.937   2.737 -0.5960  0.6735 -0.3011
 5927SOL     OW19200   4.450   0.154   0.261  0.2182 -0.6542 -0.4491
 5927SOL    HW119201   4.368   0.125   0.220  0.2250  0.0738 -1.0063
 5927SOL    HW219202   4.463   0.243   0.227  1.3435 -0.8350 -0.5305
 5928SOL     OW19203   4.144   3.431   5.092 -0.2531 -0.4532  0.6799
 5928SOL    HW119204   4.204   3.375   5.142 -1.4747 -1.0344  1.5289
 5928SOL    HW219205   4.125   3.380   5.013  1.2025  0.2098 -0.1506
 5929SOL     OW19206   7.349   6.307   0.086 -0.4503 -0.0838 -0.5052
 5929SOL    HW119207   7.298   6.342   0.013 -0.3726  0.3190 -0.3680
 5929SOL    HW219208   7.434   6.287   0.048 -0.2345  0.6315 -0.4114
 5930SOL     OW19209   4.627   3.245   7.295  0.1365  0.1270 -0.1157
 5930SOL    HW119210   4.687   3.246   7.221 -0.5881  0.8973 -0.7164
 5930SOL    HW219211   4.683   3.254   7.372  0.7303  2.6781 -0.7404
 5931SOL     OW19212   2.373   7.546   7.547 -0.6255  0.0987  0.1814
 5931SOL    HW119213   2.434   7.507   7.610  0.1423  0.5242 -0.2802
 5931SOL    HW219214   2.309   7.593   7.601 -0.9759 -0.9565  0.6997
 5932SOL     OW19215   4.980   1.267   7.812 -0.4149  0.1390  0.6807
 5932SOL    HW119216   4.930   1.224   7.742  0.5134 -0.9675  0.6719
 5932SOL    HW219217   5.052   1.207   7.831  0.4475  1.3214  1.2702
 5933SOL     OW19218   2.039   2.777   3.508  0.3553 -0.1500  0.1644
 5933SOL    HW119219   1.959   2.791   3.558 -0.3376  1.1743 -1.2645
 5933SOL    HW219220   2.053   2.682   3.512 -2.2337 -0.6544 -0.9636
 5934SOL     OW19221   0.913   3.891   0.373 -0.7501  0.5399 -0.4771
 5934SOL    HW119222   0.851   3.954   0.411 -0.0907  0.5413  0.6516
 5934SOL    HW219223   0.866   3.808   0.377 -1.6178  0.9272 -1.9579
 5935SOL     OW19224   4.192   2.182   1.046  0.3438 -0.2908 -0.0894
 5935SOL    HW119225   4.126   2.121   1.013  1.5730 -1.9876  0.4652
 5935SOL    HW219226   4.241   2.208   0.968  0.0646 -0.3253 -0.2780
 5936SOL     OW19227   2.785   4.164   1.799 -0.0759 -0.6523 -0.1109
 5936SOL    HW119228   2.726   4.127   1.864 -2.1098  1.9904 -0.2823
 5936SOL    HW219229   2.734   4.166   1.718 -0.0039  2.0166 -0.1899
 5937SOL     OW19230   6.177   2.228   1.006  0.1442 -0.2853  0.2233
 5937SOL    HW119231   6.109   2.196   0.947  0.8436  0.3162 -0.9450
 5937SOL    HW219232   6.200   2.152   1.060 -1.2059 -0.5821  0.4281
 5938SOL     OW19233   4.657   7.144   5.290 -0.3778 -0.1159  0.1000
 5938SOL    HW119234   4.633   7.233   5.263  0.0182 -0.1608 -0.4265
 5938SOL    HW219235   4.629   7.138   5.381 -1.9562 -0.0132 -0.3540
 5939SOL     OW19236   3.923   6.521   5.486  0.1006  0.6253  0.6406
 5939SOL    HW119237   3.928   6.497   5.394 -0.7715  0.4242  0.6435
 5939SOL    HW219238   3.843   6.480   5.518 -0.0579  1.3962  1.2801
 5940SOL     OW19239   2.338   7.494   1.301  0.9787  0.2626 -0.2464
 5940SOL    HW119240   2.269   7.555   1.273  1.3612  0.3010 -1.1607
 5940SOL    HW219241   2.330   7.490   1.396 -1.3082 -0.9673 -0.4198
 5941SOL     OW19242   5.302   6.202   5.518 -0.5072  0.2818 -0.2526
 5941SOL    HW119243   5.394   6.208   5.492  0.0020 -0.8388  1.1968
 5941SOL    HW219244   5.259   6.160   5.443  0.1561  0.7560 -0.9189
 5942SOL     OW19245   6.203   0.585   2.744 -0.6640 -0.1755  0.4235
 5942SOL    HW119246   6.137   0.650   2.767  1.3641  1.2614  2.6656
 5942SOL    HW219247   6.215   0.533   2.823  1.0837 -0.1477  0.2305
 5943SOL     OW19248   4.906   7.029   3.158 -0.2475 -1.1981 -0.5276
 5943SOL    HW119249   4.861   6.953   3.196 -1.3046 -0.7827 -0.9110
 5943SOL    HW219250   4.905   7.012   3.064 -1.5179 -0.2063 -0.7302
 5944SOL     OW19251   5.708   0.401   4.765 -0.6581 -0.3539 -0.7462
 5944SOL    HW119252   5.650   0.466   4.805  0.1612 -0.6863  1.0949
 5944SOL    HW219253   5.684   0.318   4.807  0.0717 -0.7794 -1.1427
 5945SOL     OW19254   7.180   2.011   2.739  0.0490 -0.4455  0.4717
 5945SOL    HW119255   7.217   1.924   2.724  1.5621  0.0863  0.9097
 5945SOL    HW219256   7.110   1.996   2.804  0.9893 -1.2065  1.3515
 5946SOL     OW19257   0.532   2.770   5.305  0.1814  0.2839 -0.0315
 5946SOL    HW119258   0.551   2.819   5.385 -0.7686 -0.1149  0.4489
 5946SOL    HW219259   0.610   2.782   5.251  1.0848  0.0636  1.1836
 5947SOL     OW19260   6.900   5.678   7.997 -0.3569 -0.0511 -0.2836
 5947SOL    HW119261   6.953   5.630   8.060 -0.6235  0.8133  0.6290
 5947SOL    HW219262   6.938   5.656   7.912  0.2219 -0.9714  0.1965
 5948SOL     OW19263   6.001   0.021   1.187 -0.2877 -0.5562 -0.6891
 5948SOL    HW119264   6.024   0.045   1.277  2.9810  0.8094 -1.7374
 5948SOL    HW219265   5.945   0.093   1.157  1.7353  1.0398 -0.8450
 5949SOL     OW19266   5.567   6.480   3.361  0.4271  0.0422 -0.6428
 5949SOL    HW119267   5.538   6.397   3.399 -0.4564  1.4311  1.9131
 5949SOL    HW219268   5.653   6.460   3.324  0.7174 -1.7670  0.8521
 5950SOL     OW19269   6.484   7.027   3.464  0.2226 -0.3938  0.4038
 5950SOL    HW119270   6.571   6.993   3.487  0.0917 -1.0579 -0.0539
 5950SOL    HW219271   6.467   6.993   3.377  0.3324  1.3712 -0.3436
 5951SOL     OW19272   0.453   4.107   3.265 -0.8040 -0.0282 -0.0442
 5951SOL    HW119273   0.437   4.049   3.339 -0.7883 -0.6482 -0.5149
 5951SOL    HW219274   0.548   4.108   3.256 -0.7107  1.1932  0.8254
 5952SOL     OW19275   5.646   2.105   3.155  0.0382  0.2075  0.3027
 5952SOL    HW119276   5.724   2.106   3.210 -0.2487 -0.8127  0.7553
 5952SOL    HW219277   5.596   2.029   3.186 -1.3799  1.1304  0.3601
 5953SOL     OW19278   7.870   1.634   4.662  0.2720  0.0176 -0.1536
 5953SOL    HW119279   7.912   1.574   4.723 -0.4976 -1.8943 -1.3828
 5953SOL    HW219280   7.795   1.670   4.711  0.8479  0.1304  0.6593
 5954SOL     OW19281   0.676   7.341   5.932  0.1560 -0.1711 -0.1786
 5954SOL    HW119282   0.765   7.348   5.897  0.5198  2.5375  1.0655
 5954SOL    HW219283   0.688   7.340   6.027 -1.0533 -2.8031  0.0350
 5955SOL     OW19284   3.074   5.733   7.818  0.1201 -0.2046  0.7428
 5955SOL    HW119285   3.112   5.661   7.867 -1.6602  0.1386  2.7791
 5955SOL    HW219286   2.984   5.740   7.851 -0.4924  1.4426 -1.0797
 5956SOL     OW19287   2.626   4.748   0.670  0.7163 -0.1389  0.1797
 5956SOL    HW119288   2.612   4.669   0.721  0.8744 -0.0269  0.3987
 5956SOL    HW219289   2.614   4.721   0.579  1.7644 -0.6446  0.1763
 5957SOL     OW19290   0.723   5.386   5.942  0.3947 -1.2418 -0.3560
 5957SOL    HW119291   0.651   5.323   5.952  0.4912 -1.2488  0.3353
 5957SOL    HW219292   0.771   5.381   6.024 -0.1896  0.4704  0.1480
 5958SOL     OW19293   0.761   5.669   5.285  0.6575 -0.0605 -0.3526
 5958SOL    HW119294   0.673   5.687   5.254 -0.1925  0.2873  2.0350
 5958SOL    HW219295   0.750   5.598   5.349  2.6499 -2.5911 -2.6027
 5959SOL     OW19296   3.851   5.304   2.474  0.5846 -0.2794  0.4442
 5959SOL    HW119297   3.835   5.271   2.386 -1.0730  0.7987  0.2955
 5959SOL    HW219298   3.935   5.350   2.468  0.7794 -0.7337 -0.4096
 5960SOL     OW19299   6.815   1.020   7.540  0.8756 -0.0190 -0.0753
 5960SOL    HW119300   6.729   0.981   7.526 -0.1804  1.5198  1.6786
 5960SOL    HW219301   6.872   0.976   7.477 -1.0866 -1.3828 -0.9908
 5961SOL     OW19302   6.733   3.850   2.800  0.2839 -0.7670 -0.0943
 5961SOL    HW119303   6.719   3.879   2.891  0.3659 -1.0055 -0.0043
 5961SOL    HW219304   6.666   3.784   2.785  0.5754 -1.0814 -0.0431
 5962SOL     OW19305   0.413   8.036   4.987  0.5798  0.2948 -0.6695
 5962SOL    HW119306   0.363   7.966   5.029  1.3969 -0.2260 -0.5503
 5962SOL    HW219307   0.493   8.044   5.039  0.3655  1.5296 -0.5098
 5963SOL     OW19308   6.545   4.588   6.013  0.1120  0.0975  0.0903
 5963SOL    HW119309   6.459   4.558   6.042  0.0752  1.2577  1.2645
 5963SOL    HW219310   6.556   4.674   6.054  1.1195  0.7324 -1.4188
 5964SOL     OW19311   4.736   6.598   7.726 -0.4860  0.1393 -0.7799
 5964SOL    HW119312   4.701   6.662   7.789 -1.0452 -1.0633  0.1817
 5964SOL    HW219313   4.663   6.536   7.713 -1.0003  1.2278 -3.9197
 5965SOL     OW19314   4.598   0.399   0.992  0.1382  0.5886 -0.1522
 5965SOL    HW119315   4.574   0.457   0.920  0.0287 -0.8715 -1.3574
 5965SOL    HW219316   4.517   0.389   1.043 -0.2653  0.2642 -0.8424
 5966SOL     OW19317   7.325   1.955   0.740 -0.1914 -0.2146  0.0511
 5966SOL    HW119318   7.256   1.998   0.690 -1.5169  0.2084  2.1222
 5966SOL    HW219319   7.402   1.960   0.684 -1.3163  1.1945 -1.4654
 5967SOL     OW19320   7.883   5.439   7.306 -0.3909 -0.7003 -0.0260
 5967SOL    HW119321   7.824   5.368   7.281 -0.9429 -1.1031  2.1554
 5967SOL    HW219322   7.828   5.517   7.308 -0.5675 -0.8380  0.7588
 5968SOL     OW19323   5.852   4.816   3.553 -0.5033 -0.4312  0.2481
 5968SOL    HW119324   5.918   4.805   3.622  1.3981 -0.1772 -1.4271
 5968SOL    HW219325   5.888   4.769   3.478 -2.4695 -0.6351 -0.6200
 5969SOL     OW19326   4.656   0.211   1.658 -0.9009 -0.1525 -0.0965
 5969SOL    HW119327   4.575   0.221   1.708 -0.9338  0.3522 -0.2441
 5969SOL    HW219328   4.628   0.208   1.567 -0.7442  0.1636 -0.1566
 5970SOL     OW19329   5.541   4.675   3.127 -0.2131 -0.0412  0.2869
 5970SOL    HW119330   5.601   4.747   3.110  1.5982 -1.4534  0.3754
 5970SOL    HW219331   5.473   4.684   3.060  0.7732  0.8894 -0.6329
 5971SOL     OW19332   0.988   7.776   6.120 -0.6842  0.1215  0.0107
 5971SOL    HW119333   1.026   7.864   6.115  0.3144 -0.3381 -0.7944
 5971SOL    HW219334   0.990   7.744   6.030 -1.1181 -0.6941  0.2847
 5972SOL     OW19335   5.700   2.557   2.339 -0.3937  0.1635  0.8130
 5972SOL    HW119336   5.788   2.520   2.332 -0.4006 -0.1705  2.3059
 5972SOL    HW219337   5.714   2.646   2.370 -0.5529  0.4269  0.1606
 5973SOL     OW19338   2.736   7.894   1.682 -0.2702 -0.2124 -0.2832
 5973SOL    HW119339   2.716   7.959   1.615  1.4963  1.2348  0.5069
 5973SOL    HW219340   2.664   7.901   1.745 -1.1729 -0.5553 -1.2449
 5974SOL     OW19341   1.617   1.323   1.548 -0.1503 -0.1537 -0.1991
 5974SOL    HW119342   1.669   1.268   1.606  0.5341 -0.3257 -0.9504
 5974SOL    HW219343   1.527   1.293   1.559 -0.1458  0.3383  1.3404
 5975SOL     OW19344   8.020   5.303   2.836  0.3487 -0.3084  0.0307
 5975SOL    HW119345   8.003   5.211   2.858  1.9626 -0.4102  0.9873
 5975SOL    HW219346   7.934   5.337   2.811 -0.4161 -1.8824  0.3602
 5976SOL     OW19347   5.243   5.043   4.444  0.4027  0.0117 -0.1517
 5976SOL    HW119348   5.265   4.972   4.503 -1.3186  1.9638  3.1795
 5976SOL    HW219349   5.148   5.038   4.434  0.1094  2.1878  0.8368
 5977SOL     OW19350   3.028   6.249   3.309 -0.0465  0.3112  0.8111
 5977SOL    HW119351   3.069   6.318   3.257 -2.5123  2.4000  1.4190
 5977SOL    HW219352   3.048   6.272   3.400  0.9224 -1.0619  0.9728
 5978SOL     OW19353   7.002   6.570   3.214  0.3528  0.2075 -0.7098
 5978SOL    HW119354   7.024   6.629   3.142 -0.6567 -0.9110 -2.0062
 5978SOL    HW219355   7.063   6.496   3.203  1.1769  0.6824  0.5004
 5979SOL     OW19356   0.394   2.284   0.411  0.2149  0.2320  0.1659
 5979SOL    HW119357   0.412   2.376   0.388 -1.7783  0.5456 -0.3320
 5979SOL    HW219358   0.335   2.290   0.486  1.8006 -0.7298  1.5655
 5980SOL     OW19359   0.948   0.424   6.000  0.7239 -0.5403  0.1443
 5980SOL    HW119360   0.896   0.495   5.962 -0.7970 -1.8105 -0.2632
 5980SOL    HW219361   0.957   0.448   6.092  1.0494  0.6194 -0.1620
 5981SOL     OW19362   6.954   6.835   0.564 -0.6315 -0.5400  0.1719
 5981SOL    HW119363   6.951   6.905   0.498 -0.9474 -0.3208  0.4149
 5981SOL    HW219364   7.042   6.797   0.554  0.0657  0.7756  0.9314
 5982SOL     OW19365   1.867   0.591   7.874  0.5393 -0.4661  0.4793
 5982SOL    HW119366   1.798   0.653   7.851 -0.6738 -0.5917  3.4058
 5982SOL    HW219367   1.824   0.505   7.871  0.9691 -0.7024  0.8807
 5983SOL     OW19368   0.914   2.291   6.335 -0.1591  0.2438 -0.4775
 5983SOL    HW119369   0.959   2.282   6.250  0.0495 -0.5908 -0.2940
 5983SOL    HW219370   0.907   2.385   6.349 -0.3840  0.3955 -1.5224
 5984SOL     OW19371   3.127   7.495   3.399 -0.0344 -0.2258 -0.5647
 5984SOL    HW119372   3.216   7.491   3.365 -0.6681  0.1492 -2.3714
 5984SOL    HW219373   3.133   7.555   3.473  1.2387 -0.3352 -0.5517
 5985SOL     OW19374   3.184   1.820   3.159  0.2412  0.4091  0.3796
 5985SOL    HW119375   3.208   1.750   3.220  0.1815 -0.2598 -0.3425
 5985SOL    HW219376   3.189   1.778   3.073 -2.3552  0.5560  0.0780
 5986SOL     OW19377   2.879   2.495   5.208 -0.2049 -0.7214 -0.2884
 5986SOL    HW119378   2.951   2.435   5.187  0.8585  0.0821  0.8448
 5986SOL    HW219379   2.847   2.526   5.124  2.2815  0.5903 -0.8476
 5987SOL     OW19380   5.858   3.248   0.592 -0.3338  0.1337  0.7197
 5987SOL    HW119381   5.777   3.245   0.642 -1.1311  2.8852 -0.2733
 5987SOL    HW219382   5.839   3.197   0.513  0.0522 -1.9264  1.8651
 5988SOL     OW19383   7.473   2.377   0.255  0.0489 -0.3682  0.1343
 5988SOL    HW119384   7.517   2.331   0.184  1.2670  1.2819 -0.2434
 5988SOL    HW219385   7.533   2.370   0.329  0.2682  0.5617  0.0639
 5989SOL     OW19386   2.356   2.992   1.859  0.0688 -0.3585  0.1096
 5989SOL    HW119387   2.367   3.004   1.953  0.8527  2.0992 -0.2317
 5989SOL    HW219388   2.262   2.994   1.845 -0.0167  1.0330  0.6970
 5990SOL     OW19389   7.536   1.947   6.000 -0.1562 -0.3145  0.0278
 5990SOL    HW119390   7.548   1.860   5.962  2.2014 -0.4531  0.9143
 5990SOL    HW219391   7.488   1.996   5.933 -1.5998 -2.2617 -0.4644
 5991SOL     OW19392   5.947   0.425   6.460  0.5300 -0.1391 -0.6768
 5991SOL    HW119393   5.919   0.354   6.519  2.0393 -1.3219 -1.3098
 5991SOL    HW219394   5.997   0.484   6.516  1.0149 -0.6675 -0.5486
 5992SOL     OW19395   5.591   0.833   7.244 -0.5757  0.2182 -0.1432
 5992SOL    HW119396   5.531   0.779   7.192 -0.0016  0.5197 -1.1593
 5992SOL    HW219397   5.553   0.921   7.239  0.3350  0.5727 -1.4753
 5993SOL     OW19398   7.981   5.937   3.058  0.5524 -0.1666  0.1139
 5993SOL    HW119399   8.042   5.900   2.994  2.0242  0.2901  1.1854
 5993SOL    HW219400   7.974   5.871   3.126  0.0953 -0.0847  0.1481
 5994SOL     OW19401   2.162   3.801   1.305 -0.2802 -0.1504  0.2815
 5994SOL    HW119402   2.155   3.842   1.218 -0.5684 -0.3655  0.2012
 5994SOL    HW219403   2.161   3.707   1.287  0.4980 -0.1967  0.4581
 5995SOL     OW19404   6.585   1.344   2.249  0.7643 -0.3082 -0.1605
 5995SOL    HW119405   6.636   1.334   2.329 -0.1810 -0.4713  0.4280
 5995SOL    HW219406   6.529   1.420   2.264  0.8365 -0.1132 -0.8100
 5996SOL     OW19407   2.436   1.066   0.063 -0.1511 -0.0456 -0.0131
 5996SOL    HW119408   2.481   1.055   0.147 -0.7841  0.5455  0.4141
 5996SOL    HW219409   2.506   1.086   0.001  0.3860 -1.0284  0.2493
 5997SOL     OW19410   1.736   1.305   2.608  0.2285 -0.0281  1.1233
 5997SOL    HW119411   1.743   1.211   2.624 -1.2970 -0.4401 -0.3594
 5997SOL    HW219412   1.808   1.324   2.547 -1.3920 -0.9523 -1.1953
 5998SOL     OW19413   7.183   7.530   7.770  0.4975 -0.2948 -0.3702
 5998SOL    HW119414   7.236   7.603   7.803  0.1046 -0.8710  1.6573
 5998SOL    HW219415   7.230   7.499   7.693  2.0661  0.4396  0.2532
 5999SOL     OW19416   2.639   3.511   1.527 -0.5068  0.0434  0.2317
 5999SOL    HW119417   2.717   3.559   1.555 -1.1212  2.9559 -2.5064
 5999SOL    HW219418   2.672   3.425   1.502  1.2756  0.1536  1.9563
 6000SOL     OW19419   2.290   7.160   3.216  0.9457 -0.5969 -0.3082
 6000SOL    HW119420   2.240   7.232   3.179  0.5901 -0.4645  0.4069
 6000SOL    HW219421   2.229   7.086   3.220  1.9056 -1.6612 -3.1227
 6001SOL     OW19422   3.941   0.297   2.097 -0.1446  0.1763  0.5912
 6001SOL    HW119423   3.984   0.348   2.165 -0.9693  0.8534  0.6166
 6001SOL    HW219424   3.851   0.329   2.096 -0.1773  0.0827 -0.7363
 6002SOL     OW19425   0.995   3.101   2.898  0.2618 -0.0073 -0.2695
 6002SOL    HW119426   1.055   3.027   2.907  0.8575  0.4034 -0.7214
 6002SOL    HW219427   0.981   3.109   2.803 -0.4755 -0.0738 -0.1681
 6003SOL     OW19428   2.639   6.205   7.292  0.3074  0.1121  0.1127
 6003SOL    HW119429   2.568   6.213   7.355 -1.0564  0.0469 -1.3509
 6003SOL    HW219430   2.719   6.214   7.344 -0.7089 -1.4827  2.0524
 6004SOL     OW19431   0.800   7.162   7.588  0.1071  0.0412 -0.2805
 6004SOL    HW119432   0.731   7.103   7.557  0.7674 -0.9059 -0.0083
 6004SOL    HW219433   0.861   7.105   7.635  0.4764  1.0442  0.4949
 6005SOL     OW19434   6.333   3.221   1.783  0.0456 -0.5703  0.2020
 6005SOL    HW119435   6.253   3.185   1.743 -0.6251  0.6639  0.3957
 6005SOL    HW219436   6.311   3.311   1.804  1.7999  0.0917 -0.5816
 6006SOL     OW19437   0.080   3.945   6.063 -0.1915  0.2978  0.2760
 6006SOL    HW119438  -0.000   3.984   6.029 -0.6008  0.1628  1.0683
 6006SOL    HW219439   0.060   3.852   6.072  0.1840  0.1980  0.1264
 6007SOL     OW19440   6.493   4.718   3.799  0.2163  0.2267  0.3580
 6007SOL    HW119441   6.526   4.736   3.887  0.7671  1.3478 -0.0542
 6007SOL    HW219442   6.548   4.771   3.742 -1.3453  1.0013 -0.4924
 6008SOL     OW19443   1.583   0.468   3.601 -0.5041 -0.3902  0.4860
 6008SOL    HW119444   1.605   0.509   3.517 -1.4401 -1.3508 -0.2572
 6008SOL    HW219445   1.662   0.476   3.653  0.5175 -0.8699 -0.9401
 6009SOL     OW19446   2.312   6.479   7.997  0.0134 -0.2884 -0.5690
 6009SOL    HW119447   2.353   6.478   8.084  0.1319  0.3819 -0.6081
 6009SOL    HW219448   2.322   6.390   7.965 -0.3309 -0.6297  0.2440
 6010SOL     OW19449   2.112   2.932   1.695  0.4296  0.2408 -0.0373
 6010SOL    HW119450   2.111   2.966   1.605  0.8645 -0.0615 -0.1578
 6010SOL    HW219451   2.036   2.875   1.700  0.2859  0.4214 -0.1500
 6011SOL     OW19452   2.245   2.296   4.809 -0.5277 -0.2680  0.5483
 6011SOL    HW119453   2.268   2.312   4.901 -0.0866  0.6229  0.2898
 6011SOL    HW219454   2.299   2.221   4.784  1.8948  1.5367  0.0650
 6012SOL     OW19455   3.002   3.968   3.387 -0.1758  0.0483 -0.7117
 6012SOL    HW119456   2.906   3.973   3.385 -0.2622 -0.7336  0.5029
 6012SOL    HW219457   3.023   3.887   3.341 -0.1195  0.0747 -0.7326
 6013SOL     OW19458   4.228   0.182   3.311  0.5848  0.3034 -0.0832
 6013SOL    HW119459   4.192   0.130   3.239 -1.4099 -0.0330  1.0900
 6013SOL    HW219460   4.212   0.273   3.286 -0.0701  0.1887 -0.1025
 6014SOL     OW19461   3.720   1.966   4.273  0.0181 -0.0637  0.3655
 6014SOL    HW119462   3.710   1.952   4.179  0.0374  0.9056  0.2094
 6014SOL    HW219463   3.636   1.939   4.310  0.2791 -1.2111  0.1795
 6015SOL     OW19464   7.763   3.003   6.611 -0.2854  0.6349  0.1305
 6015SOL    HW119465   7.744   3.095   6.629 -0.6581  0.6663 -0.3908
 6015SOL    HW219466   7.858   2.999   6.604 -0.1635  0.7228  1.4793
 6016SOL     OW19467   4.963   0.028   7.556 -0.0346  0.2116 -0.1513
 6016SOL    HW119468   4.943   0.067   7.471  1.7852  1.1525 -0.2074
 6016SOL    HW219469   5.059   0.024   7.559 -0.0899 -1.3347  1.1932
 6017SOL     OW19470   3.036   3.856   7.741 -0.0214  0.6955 -0.0439
 6017SOL    HW119471   3.035   3.909   7.820  0.5038 -0.1530  0.5399
 6017SOL    HW219472   3.123   3.870   7.703  0.3158 -0.1686  0.4041
 6018SOL     OW19473   5.621   2.787   3.050 -0.4534 -0.2009 -0.4591
 6018SOL    HW119474   5.632   2.737   2.969 -0.4576 -0.7394 -0.1309
 6018SOL    HW219475   5.706   2.828   3.064 -0.1850 -0.8130 -0.2713
 6019SOL     OW19476   7.135   1.892   6.520  0.0289  0.4796  0.4130
 6019SOL    HW119477   7.149   1.817   6.578 -0.2755 -0.1505 -0.3104
 6019SOL    HW219478   7.108   1.853   6.437  1.3263  1.3261 -0.4286
 6020SOL     OW19479   7.905   6.588   5.608  0.3228 -0.8339 -0.0122
 6020SOL    HW119480   7.949   6.649   5.667 -1.0793 -1.3937  1.7238
 6020SOL    HW219481   7.976   6.541   5.565  1.4095  0.8196 -0.1166
 6021SOL     OW19482   6.413   0.420   4.110  0.4164 -0.0396 -0.3913
 6021SOL    HW119483   6.378   0.375   4.033 -2.8998  0.1239  0.8510
 6021SOL    HW219484   6.502   0.384   4.120  0.9725 -0.1225 -4.1403
 6022SOL     OW19485   3.194   4.047   3.113  0.1115 -0.1180  0.4092
 6022SOL    HW119486   3.250   4.055   3.036 -0.1295 -0.1142  0.2328
 6022SOL    HW219487   3.108   4.024   3.078 -0.5807  2.1294  0.4660
 6023SOL     OW19488   6.810   4.851   0.203 -0.2741  0.4428  0.0837
 6023SOL    HW119489   6.805   4.796   0.125  3.4136  0.7684 -0.5553
 6023SOL    HW219490   6.719   4.878   0.219 -1.6169 -2.2194 -2.1198
 6024SOL     OW19491   6.152   7.900   1.876 -0.3305 -0.1170  0.0144
 6024SOL    HW119492   6.061   7.881   1.855 -0.4779 -0.9615  1.3340
 6024SOL    HW219493   6.190   7.815   1.898  0.0527  0.5491  2.1235
 6025SOL     OW19494   3.782   2.859   1.561 -0.3602  0.0395 -0.0344
 6025SOL    HW119495   3.758   2.813   1.480  1.5085  1.0680 -1.2538
 6025SOL    HW219496   3.750   2.949   1.547 -1.2913 -0.1070  1.0207
 6026SOL     OW19497   4.009   4.218   3.197  0.1237  0.5891 -0.1588
 6026SOL    HW119498   4.025   4.135   3.242  1.3538 -0.0746 -1.7343
 6026SOL    HW219499   3.996   4.194   3.105 -1.9468  1.9320 -0.3052
 6027SOL     OW19500   4.253   4.004   1.069 -0.1326 -0.3940 -0.4788
 6027SOL    HW119501   4.171   4.042   1.039 -1.1622 -1.8316  0.3460
 6027SOL    HW219502   4.261   3.922   1.020 -0.8424 -1.8052  1.5918
 6028SOL     OW19503   2.503   6.268   6.627  0.0470  0.0033  0.2606
 6028SOL    HW119504   2.525   6.338   6.689  1.1208 -2.6682  3.2006
 6028SOL    HW219505   2.410   6.250   6.644 -0.0716  0.2859 -0.0698
 6029SOL     OW19506   3.866   1.125   2.519  0.2409 -0.0846  0.0594
 6029SOL    HW119507   3.907   1.062   2.579 -1.0112 -1.1246 -0.1169
 6029SOL    HW219508   3.918   1.120   2.439 -1.1094 -2.6805 -0.7917
 6030SOL     OW19509   0.722   0.930   6.694 -0.9528  0.2289 -0.0945
 6030SOL    HW119510   0.696   0.856   6.640 -1.2846 -0.1788  0.6115
 6030SOL    HW219511   0.712   1.007   6.637 -3.4779  0.0856  0.0629
 6031SOL     OW19512   3.690   4.929   1.987  0.3464 -0.3427 -0.1279
 6031SOL    HW119513   3.621   4.956   2.046  0.2748 -2.4426  0.8361
 6031SOL    HW219514   3.701   5.003   1.927 -1.1280  0.9352  1.1011
 6032SOL     OW19515   3.129   5.726   3.276  1.0627  0.1101  0.3780
 6032SOL    HW119516   3.075   5.800   3.304  2.5181  1.0592  0.8057
 6032SOL    HW219517   3.143   5.741   3.182  1.5936  0.5397  0.5246
 6033SOL     OW19518   1.476   3.313   0.500 -0.3785 -0.7055 -0.1785
 6033SOL    HW119519   1.491   3.362   0.581 -1.3723 -1.3597  0.4051
 6033SOL    HW219520   1.553   3.333   0.446 -0.0088  0.2360  0.6651
 6034SOL     OW19521   2.031   1.877   6.485 -0.0330  0.2268 -0.1716
 6034SOL    HW119522   2.099   1.920   6.536 -0.8676  0.5439  0.6852
 6034SOL    HW219523   2.075   1.853   6.403  0.9135  1.0666  0.0730
 6035SOL     OW19524   3.897   4.507   4.332  0.2993  0.1832 -0.4625
 6035SOL    HW119525   3.812   4.475   4.301 -0.5890  1.4472  0.5511
 6035SOL    HW219526   3.886   4.602   4.337  2.2176  0.5211 -1.5338
 6036SOL     OW19527   6.215   0.697   4.515  0.0431  0.0621 -0.7082
 6036SOL    HW119528   6.308   0.720   4.508 -0.0880  1.6441  1.5203
 6036SOL    HW219529   6.201   0.685   4.609 -2.0563  0.0848 -0.9843
 6037SOL     OW19530   1.491   6.858   2.873 -0.2618 -0.2622  0.2769
 6037SOL    HW119531   1.523   6.799   2.805 -0.9048 -0.2709 -0.0184
 6037SOL    HW219532   1.444   6.802   2.934 -1.5533  0.0411 -0.4170
 6038SOL     OW19533   0.539   0.208   4.062 -0.2750 -0.1754  0.5559
 6038SOL    HW119534   0.486   0.193   4.140 -0.6764 -1.1835  0.0985
 6038SOL    HW219535   0.528   0.302   4.044 -0.9300 -0.1236  1.1709
 6039SOL     OW19536   1.926   5.183   0.636  0.0648 -0.1058  0.1061
 6039SOL    HW119537   1.996   5.194   0.701 -1.0479  0.6520  1.2033
 6039SOL    HW219538   1.933   5.262   0.581  0.4686 -0.3377 -0.1795
 6040SOL     OW19539   7.045   4.685   7.832  0.0909  0.0186 -0.0802
 6040SOL    HW119540   6.979   4.718   7.771 -1.4023  0.2543  1.5798
 6040SOL    HW219541   6.999   4.619   7.884  1.0533  0.3991  1.3199
 6041SOL     OW19542   1.024   7.578   4.514 -0.1924 -0.4475  0.0027
 6041SOL    HW119543   0.956   7.520   4.549 -1.2894  0.8447  0.0992
 6041SOL    HW219544   0.982   7.623   4.441  0.7544 -0.0544 -0.3136
 6042SOL     OW19545   6.103   0.883   6.499 -0.5479 -0.8675 -0.0937
 6042SOL    HW119546   6.173   0.933   6.542 -2.1298  2.8661 -1.4167
 6042SOL    HW219547   6.134   0.870   6.410 -1.5326  1.1691 -0.8082
 6043SOL     OW19548   4.968   5.941   3.131 -0.1248 -0.2529 -0.1268
 6043SOL    HW119549   5.019   5.865   3.160  2.0110  0.1412 -2.4458
 6043SOL    HW219550   4.995   6.012   3.188 -1.4382 -0.9343  1.4501
 6044SOL     OW19551   0.917   2.162   3.897  0.0439  0.5360  0.6163
 6044SOL    HW119552   0.902   2.074   3.861 -0.3192 -0.1025  2.2388
 6044SOL    HW219553   0.831   2.204   3.895 -0.1123  0.2615  1.3131
 6045SOL     OW19554   0.535   2.744   3.061 -0.4222 -0.3268 -0.0235
 6045SOL    HW119555   0.493   2.732   3.146  0.0457  0.8571  0.3938
 6045SOL    HW219556   0.626   2.766   3.081 -0.6136  1.2528 -0.7738
 6046SOL     OW19557   1.610   6.611   1.358  0.6167 -0.1832 -0.4236
 6046SOL    HW119558   1.622   6.669   1.433  1.3710  1.9980 -2.1317
 6046SOL    HW219559   1.688   6.555   1.359  1.0837  0.4603 -0.1147
 6047SOL     OW19560   1.273   5.001   6.984 -0.0204  0.4111  0.1670
 6047SOL    HW119561   1.263   5.070   7.050 -0.3157 -0.1091  0.6728
 6047SOL    HW219562   1.267   5.048   6.901 -1.8051  0.8132  0.4757
 6048SOL     OW19563   0.921   3.257   5.070  0.2005 -0.0925 -0.3469
 6048SOL    HW119564   0.903   3.229   4.980  1.3342 -0.0146 -0.6060
 6048SOL    HW219565   0.953   3.178   5.113  1.0235  0.2013 -0.4065
 6049SOL     OW19566   3.055   2.968   4.184 -0.3621  0.3039  0.2538
 6049SOL    HW119567   3.072   2.900   4.249 -0.2036  0.8584  0.8087
 6049SOL    HW219568   3.139   2.981   4.140  0.6527  2.5542  2.5212
 6050SOL     OW19569   6.836   0.765   2.311  0.1211 -0.2115  0.0626
 6050SOL    HW119570   6.780   0.775   2.389 -1.7139 -1.4987 -1.0232
 6050SOL    HW219571   6.925   0.770   2.345 -0.6291  0.2915  2.1055
 6051SOL     OW19572   1.268   5.942   2.063 -0.3533  0.1857  0.0232
 6051SOL    HW119573   1.285   5.899   2.147 -0.4365  1.4188  0.6824
 6051SOL    HW219574   1.201   5.888   2.021  0.2995 -0.9196  0.3570
 6052SOL     OW19575   1.634   4.829   1.873  0.5139  0.1580  0.2843
 6052SOL    HW119576   1.587   4.908   1.900  2.3064  1.7405 -0.9335
 6052SOL    HW219577   1.567   4.775   1.831 -0.7880  0.9502  1.2448
 6053SOL     OW19578   2.543   2.387   4.048  0.0064  0.1098  0.7158
 6053SOL    HW119579   2.492   2.404   3.968  3.3884  1.6005 -1.3559
 6053SOL    HW219580   2.576   2.298   4.037  1.4592  0.7202 -0.2960
 6054SOL     OW19581   7.971   7.111   5.463 -0.8361  0.0380  0.1849
 6054SOL    HW119582   8.057   7.136   5.496 -0.3852 -1.8284  0.5752
 6054SOL    HW219583   7.913   7.117   5.540 -0.9070  0.6365  0.0853
 6055SOL     OW19584   1.413   4.342   2.774 -0.2695  0.6866  0.0525
 6055SOL    HW119585   1.388   4.308   2.688  0.3545 -1.9957  0.8490
 6055SOL    HW219586   1.508   4.338   2.775 -0.2991  0.0807  1.0950
 6056SOL     OW19587   7.952   6.383   5.964  0.0425  0.4977 -0.2777
 6056SOL    HW119588   7.887   6.381   5.893  0.0154 -0.9167 -0.2532
 6056SOL    HW219589   7.904   6.353   6.041  0.8299 -1.1316 -0.3830
 6057SOL     OW19590   4.638   7.881   4.310  0.1329  0.1136 -0.7450
 6057SOL    HW119591   4.608   7.831   4.386  0.0313  0.7494 -0.3645
 6057SOL    HW219592   4.557   7.913   4.270  0.2500  1.1009 -0.2150
 6058SOL     OW19593   2.629   7.878   7.504  0.1437 -0.1761 -0.1046
 6058SOL    HW119594   2.545   7.924   7.511  1.3781  2.2249 -0.1043
 6058SOL    HW219595   2.641   7.864   7.411 -0.0503 -0.1256 -0.1383
 6059SOL     OW19596   4.583   6.818   1.673  0.7748 -0.6710 -0.4837
 6059SOL    HW119597   4.550   6.793   1.587  3.0836 -2.3507 -1.0114
 6059SOL    HW219598   4.535   6.762   1.734 -1.4708  1.1192 -0.5280
 6060SOL     OW19599   4.109   2.707   6.997 -0.1452 -0.6914  0.5076
 6060SOL    HW119600   4.113   2.669   6.909 -1.2152 -1.0279  0.5949
 6060SOL    HW219601   4.067   2.792   6.985 -1.1815 -1.1457  0.8062
 6061SOL     OW19602   8.004   5.615   7.890 -0.4492 -0.1357  0.0055
 6061SOL    HW119603   8.083   5.652   7.929  0.6833  0.8455 -2.9229
 6061SOL    HW219604   8.033   5.531   7.853 -0.8762  0.0029 -0.6617
 6062SOL     OW19605   3.776   2.096   0.780 -0.3220 -0.6505 -0.2699
 6062SOL    HW119606   3.760   2.174   0.728 -2.2510  0.3149  1.6312
 6062SOL    HW219607   3.813   2.128   0.862 -2.5155 -1.5101  1.1352
 6063SOL     OW19608   2.946   3.616   3.522 -0.2808 -0.3451 -0.0729
 6063SOL    HW119609   2.908   3.595   3.437  0.2535 -1.8590  0.0192
 6063SOL    HW219610   3.039   3.626   3.505 -0.6027  3.4987 -0.3231
 6064SOL     OW19611   0.909   5.312   1.319  0.0888 -0.5766  0.3748
 6064SOL    HW119612   0.996   5.277   1.300  0.4135  0.8157 -0.8776
 6064SOL    HW219613   0.924   5.404   1.338 -1.0537 -0.4549  0.7576
 6065SOL     OW19614   2.291   1.747   1.142 -0.3982 -0.0622 -0.4378
 6065SOL    HW119615   2.216   1.689   1.125 -0.1798 -0.9270  1.3497
 6065SOL    HW219616   2.254   1.835   1.134 -1.6614 -0.4691  0.5270
 6066SOL     OW19617   6.769   6.809   6.584  0.1284  0.1179  0.3031
 6066SOL    HW119618   6.818   6.727   6.576  1.4291  0.7515  1.3985
 6066SOL    HW219619   6.764   6.824   6.678  2.7720  2.9036  0.1669
 6067SOL     OW19620   6.704   7.351   5.817 -0.1586 -0.0354 -0.0505
 6067SOL    HW119621   6.736   7.310   5.897 -0.2790 -1.0770 -0.5150
 6067SOL    HW219622   6.768   7.419   5.797  1.5295 -1.7412 -0.6974
 6068SOL     OW19623   3.001   0.681   2.123  0.4601  0.0077  0.7383
 6068SOL    HW119624   3.059   0.613   2.089 -0.7950 -1.2537  1.0257
 6068SOL    HW219625   2.915   0.640   2.124 -0.6455  2.1221 -0.5759
 6069SOL     OW19626   7.335   0.778   4.441 -0.5458  0.3847  0.2964
 6069SOL    HW119627   7.273   0.787   4.368  0.2728 -0.0924 -0.4673
 6069SOL    HW219628   7.284   0.805   4.518 -2.0161 -0.9018 -0.1630
 6070SOL     OW19629   6.735   3.783   3.873  0.3156 -0.4243  0.2574
 6070SOL    HW119630   6.774   3.715   3.928 -2.3526 -2.9074 -0.6169
 6070SOL    HW219631   6.653   3.805   3.917 -0.2825 -0.0079 -1.0123
 6071SOL     OW19632   4.029   5.975   7.745 -0.0341 -0.2406  0.1708
 6071SOL    HW119633   4.042   5.957   7.838  0.6776  2.6836  0.7538
 6071SOL    HW219634   4.065   5.899   7.700  0.7186 -1.1994  2.2597
 6072SOL     OW19635   4.443   3.109   1.190  0.2689 -0.2418 -0.2048
 6072SOL    HW119636   4.477   3.190   1.154  1.3267 -1.4364 -1.9885
 6072SOL    HW219637   4.351   3.129   1.212 -0.1280  0.8460 -2.6295
 6073SOL     OW19638   2.773   6.835   2.675 -0.3910 -0.3633 -0.2369
 6073SOL    HW119639   2.812   6.793   2.752  0.9965 -0.3247 -0.8976
 6073SOL    HW219640   2.679   6.816   2.683 -0.5301  0.9203  2.2432
 6074SOL     OW19641   1.926   7.880   7.423 -0.6134 -0.3579 -0.1624
 6074SOL    HW119642   1.969   7.958   7.386 -1.3061  0.0856 -0.0596
 6074SOL    HW219643   1.868   7.915   7.491 -0.9418 -0.9622 -0.1266
 6075SOL     OW19644   6.975   7.703   7.126  0.1381  0.4415 -0.1927
 6075SOL    HW119645   7.023   7.659   7.056  0.4500  2.8651 -1.6202
 6075SOL    HW219646   7.041   7.754   7.173 -0.4195  0.6171  0.4141
 6076SOL     OW19647   3.727   6.425   8.033 -0.4327  0.2525  0.3115
 6076SOL    HW119648   3.646   6.472   8.051 -0.9796 -0.0480 -1.2431
 6076SOL    HW219649   3.701   6.352   7.976  0.7201 -0.6738  0.9338
 6077SOL     OW19650   3.267   4.332   0.957 -0.1917  0.3602  0.5170
 6077SOL    HW119651   3.303   4.315   0.871 -0.7133  0.8327  0.1975
 6077SOL    HW219652   3.277   4.427   0.969  1.8948  0.0297  1.9082
 6078SOL     OW19653   0.779   0.462   4.913 -0.4812 -0.0369  0.1245
 6078SOL    HW119654   0.811   0.552   4.907 -1.3620  0.1955 -1.3941
 6078SOL    HW219655   0.855   0.408   4.889 -0.4829  0.4013 -0.9235
 6079SOL     OW19656   3.224   0.607   3.201 -0.5001  0.4155 -0.4581
 6079SOL    HW119657   3.155   0.647   3.255 -1.0672  1.5129 -1.9133
 6079SOL    HW219658   3.280   0.561   3.264 -0.2810  2.8264  1.2728
 6080SOL     OW19659   0.024   4.929   6.575  0.6633 -0.2344 -0.2679
 6080SOL    HW119660  -0.064   4.938   6.614  0.3595  0.5079 -1.0902
 6080SOL    HW219661   0.075   4.998   6.617  0.3333  0.5723 -1.1639
 6081SOL     OW19662   0.251   0.774   7.172 -0.2694  0.2748  0.6919
 6081SOL    HW119663   0.309   0.753   7.245 -0.0965 -0.1147  0.4470
 6081SOL    HW219664   0.297   0.742   7.094 -0.9890 -0.4158  0.5383
 6082SOL     OW19665   4.200   0.419   0.835 -0.0250 -0.5157  0.0042
 6082SOL    HW119666   4.148   0.457   0.765 -0.9946  0.0830  1.0135
 6082SOL    HW219667   4.211   0.491   0.898  0.6516 -1.0888  0.5510
 6083SOL     OW19668   0.887   0.788   2.472  0.3953 -0.0063 -0.0185
 6083SOL    HW119669   0.981   0.766   2.470  0.4508  0.2386 -0.1684
 6083SOL    HW219670   0.850   0.742   2.397  0.2002 -0.9646  0.6538
 6084SOL     OW19671   5.461   1.647   2.776 -0.3810 -0.0883 -0.3837
 6084SOL    HW119672   5.460   1.742   2.777 -1.4318 -0.0878  0.8947
 6084SOL    HW219673   5.376   1.623   2.739  0.1356 -0.5459 -1.3090
 6085SOL     OW19674   3.798   3.946   7.893 -0.1502  0.0925 -0.2322
 6085SOL    HW119675   3.705   3.968   7.883  0.0624  0.5452 -1.3410
 6085SOL    HW219676   3.826   3.996   7.969 -0.4454  1.2074 -0.8338
 6086SOL     OW19677   6.640   3.685   1.464  0.6977  0.0896 -0.1837
 6086SOL    HW119678   6.572   3.739   1.504 -1.6822 -2.3154 -0.6969
 6086SOL    HW219679   6.703   3.671   1.535  0.5343  2.1354  0.4160
 6087SOL     OW19680   2.077   5.693   6.022 -0.2167 -0.4067 -0.4757
 6087SOL    HW119681   2.082   5.672   5.929  2.2450 -0.2359 -0.4295
 6087SOL    HW219682   2.062   5.788   6.024  2.8649  0.1855 -0.8025
 6088SOL     OW19683   6.066   6.790   7.865 -0.3462 -0.1506 -0.3148
 6088SOL    HW119684   6.010   6.847   7.812 -1.9317  0.4386  1.8645
 6088SOL    HW219685   6.056   6.822   7.954 -1.0920 -3.6102  1.0135
 6089SOL     OW19686   4.043   0.391   1.213 -0.3056  0.0609  0.2983
 6089SOL    HW119687   4.056   0.296   1.209 -2.9742 -0.3610 -1.5947
 6089SOL    HW219688   3.966   0.406   1.158  0.4912  3.4377 -0.0943
 6090SOL     OW19689   6.465   6.497   2.470  0.2280 -0.4212  0.5465
 6090SOL    HW119690   6.460   6.415   2.421 -1.0943 -0.3832  0.5993
 6090SOL    HW219691   6.525   6.552   2.419 -0.7847 -0.5326 -0.7952
 6091SOL     OW19692   5.799   4.482   1.345  0.2819 -0.6282 -0.0798
 6091SOL    HW119693   5.715   4.497   1.303  0.4160 -1.3385 -0.6083
 6091SOL    HW219694   5.864   4.506   1.279  0.4973 -2.3740 -0.5304
 6092SOL     OW19695   1.485   0.168   2.817 -0.1645 -0.2369 -0.0599
 6092SOL    HW119696   1.449   0.249   2.782 -0.0586  0.0803  0.5511
 6092SOL    HW219697   1.547   0.196   2.885  0.7498 -0.7878 -0.6434
 6093SOL     OW19698   7.834   2.795   4.721 -0.2496  0.3143 -0.0485
 6093SOL    HW119699   7.796   2.875   4.685  1.0114  0.9501 -0.0245
 6093SOL    HW219700   7.763   2.756   4.772 -0.9884  1.2437 -0.3332
 6094SOL     OW19701   1.210   5.547   3.413  0.1079  0.6930  0.0610
 6094SOL    HW119702   1.116   5.562   3.403 -0.2249 -0.1033  1.7204
 6094SOL    HW219703   1.228   5.469   3.361 -0.0376  1.1568 -0.6921
 6095SOL     OW19704   3.328   6.803   6.376  0.0988  0.0609 -0.1872
 6095SOL    HW119705   3.266   6.787   6.305  0.4037 -0.3855 -0.3575
 6095SOL    HW219706   3.407   6.834   6.332  0.3110 -0.2816 -0.0482
 6096SOL     OW19707   0.985   7.982   5.663  0.6315 -0.0352  0.2415
 6096SOL    HW119708   0.897   7.947   5.649 -0.1363  2.1115 -0.8387
 6096SOL    HW219709   0.981   8.023   5.750  0.5017  0.1987  0.1269
 6097SOL     OW19710   4.605   1.527   7.503 -0.2889  0.2695 -0.3959
 6097SOL    HW119711   4.579   1.619   7.512  0.3878  0.6501 -1.8832
 6097SOL    HW219712   4.683   1.519   7.557 -0.0873  0.7087 -0.6087
 6098SOL     OW19713   1.852   7.372   3.586  0.1729  0.5175  0.2461
 6098SOL    HW119714   1.891   7.347   3.670  1.1100  1.0730 -0.0006
 6098SOL    HW219715   1.784   7.436   3.609  0.2847  0.5124  0.5997
 6099SOL     OW19716   4.373   2.026   1.556  0.5458 -0.0810  0.1045
 6099SOL    HW119717   4.360   2.046   1.464 -0.0287  0.1196  0.2249
 6099SOL    HW219718   4.443   2.085   1.584  0.5957 -0.0162 -0.1557
 6100SOL     OW19719   2.311   7.559   4.236  0.1744  0.4839  0.3297
 6100SOL    HW119720   2.292   7.476   4.193 -2.0431  0.7731  0.6200
 6100SOL    HW219721   2.351   7.614   4.169 -1.7454  0.3840 -0.9775
 6101SOL     OW19722   4.754   4.386   7.073 -0.0654  0.5792  0.0289
 6101SOL    HW119723   4.658   4.378   7.067 -0.0909  1.2500 -0.5251
 6101SOL    HW219724   4.781   4.307   7.120 -0.7829 -0.2266 -0.8693
 6102SOL     OW19725   3.825   0.130   5.320 -0.7657  0.7394 -0.3146
 6102SOL    HW119726   3.905   0.154   5.366  0.1075 -2.5680  0.1319
 6102SOL    HW219727   3.767   0.096   5.388 -0.7336 -1.1406 -1.1684
 6103SOL     OW19728   6.212   2.808   5.736  0.6399  0.0601  0.0535
 6103SOL    HW119729   6.155   2.773   5.804 -1.9885 -0.1043 -2.0879
 6103SOL    HW219730   6.185   2.899   5.726  1.3275  0.2205 -0.4356
 6104SOL     OW19731   1.604   6.921   0.537  0.1230 -0.1303  0.2776
 6104SOL    HW119732   1.692   6.897   0.507  0.9411  0.2139  2.2642
 6104SOL    HW219733   1.580   6.997   0.484  0.8461 -0.4642 -0.5524
 6105SOL     OW19734   7.690   2.791   4.075 -0.4573 -0.4811 -0.7847
 6105SOL    HW119735   7.641   2.833   4.145  1.4468  1.1443 -0.3459
 6105SOL    HW219736   7.680   2.850   4.000 -0.3795 -0.8892 -1.1172
 6106SOL     OW19737   2.711   2.180   1.127  0.5474 -0.1870 -0.0217
 6106SOL    HW119738   2.666   2.194   1.211  1.4147 -1.8303  0.7596
 6106SOL    HW219739   2.733   2.268   1.097 -0.5047  0.4820  1.0534
 6107SOL     OW19740   3.876   3.389   0.334 -0.4520 -0.1027 -0.0905
 6107SOL    HW119741   3.907   3.321   0.394 -0.2464 -0.5301 -0.6736
 6107SOL    HW219742   3.873   3.346   0.249 -1.3912  0.3015 -0.2764
 6108SOL     OW19743   2.121   4.791   2.209  0.6855  0.0523  0.3789
 6108SOL    HW119744   2.136   4.881   2.181 -0.0275 -0.0871 -0.4770
 6108SOL    HW219745   2.085   4.747   2.133  0.7926 -0.9055  0.8602
 6109SOL     OW19746   6.201   0.087   4.079 -0.2103 -0.2318 -0.5715
 6109SOL    HW119747   6.231   0.141   4.006 -0.4653 -0.8590 -1.1538
 6109SOL    HW219748   6.282   0.054   4.119 -0.0828 -0.4411 -0.9998
 6110SOL     OW19749   8.007   5.925   6.504 -0.4668 -0.3811  0.6282
 6110SOL    HW119750   7.935   5.871   6.534 -0.5413 -0.4166  0.3895
 6110SOL    HW219751   8.003   6.004   6.559 -1.3193  0.0746 -0.0656
 6111SOL     OW19752   1.758   5.890   6.863  0.6289 -0.0709  0.4455
 6111SOL    HW119753   1.677   5.867   6.908  0.1692 -0.0876 -0.3801
 6111SOL    HW219754   1.779   5.978   6.895  0.0948  0.0742  0.3983
 6112SOL     OW19755   4.756   1.756   1.542 -0.7171  0.5501 -0.4920
 6112SOL    HW119756   4.688   1.690   1.558  0.4795 -0.9488 -1.2983
 6112SOL    HW219757   4.805   1.761   1.624  1.2704 -2.1558 -1.3778
 6113SOL     OW19758   7.759   6.669   7.900 -0.0590  0.5066  0.7495
 6113SOL    HW119759   7.749   6.603   7.831 -0.6373  1.3425  0.0122
 6113SOL    HW219760   7.751   6.619   7.982  2.7040 -0.8566  0.3254
 6114SOL     OW19761   1.149   0.510   0.493 -0.3478 -0.4188 -0.6807
 6114SOL    HW119762   1.164   0.517   0.587 -0.5751 -1.6984 -0.5371
 6114SOL    HW219763   1.113   0.422   0.480  0.1462 -0.4530 -2.0235
 6115SOL     OW19764   7.634   3.376   4.174  0.4629  0.2536 -0.3484
 6115SOL    HW119765   7.659   3.467   4.189 -0.3972  0.7335 -1.6124
 6115SOL    HW219766   7.566   3.359   4.240 -0.1211  0.8878 -0.7658
 6116SOL     OW19767   3.924   4.254   4.590  0.5733 -0.0137 -0.0932
 6116SOL    HW119768   3.923   4.263   4.685 -0.2225 -0.7131 -0.0322
 6116SOL    HW219769   3.888   4.167   4.573  1.1589 -0.0936 -1.0161
 6117SOL     OW19770   0.975   7.190   4.732 -0.2799 -0.1507  0.0028
 6117SOL    HW119771   0.977   7.105   4.688 -1.4367  0.0100 -0.3982
 6117SOL    HW219772   1.042   7.183   4.801 -0.6880 -1.5609  0.2933
 6118SOL     OW19773   3.869   2.192   7.188 -0.7400 -0.4095  0.3542
 6118SOL    HW119774   3.805   2.196   7.117  0.6151  2.1905 -0.8730
 6118SOL    HW219775   3.921   2.114   7.170 -0.8964 -0.1936 -1.0878
 6119SOL     OW19776   6.884   2.657   5.674  0.2492  0.5604 -0.6181
 6119SOL    HW119777   6.880   2.595   5.747  2.1417 -0.7519 -1.5335
 6119SOL    HW219778   6.876   2.743   5.716  0.6078 -0.1788  1.0739
 6120SOL     OW19779   2.949   7.233   1.355 -0.6885 -0.5017  0.4601
 6120SOL    HW119780   2.926   7.280   1.435  1.8561 -0.2832  1.1553
 6120SOL    HW219781   2.890   7.268   1.288 -1.9575  0.2878  1.9295
 6121SOL     OW19782   5.670   4.517   6.163 -0.5912  0.4395  0.2649
 6121SOL    HW119783   5.674   4.564   6.246 -0.0295  1.5276 -0.3514
 6121SOL    HW219784   5.667   4.586   6.096  2.3265 -0.2985 -0.7770
 6122SOL     OW19785   3.920   1.567   0.847 -0.0420  0.1363 -0.0987
 6122SOL    HW119786   3.906   1.532   0.935  1.6715  2.2363  1.1152
 6122SOL    HW219787   3.858   1.640   0.840 -0.4976 -0.3110 -0.8339
 6123SOL     OW19788   1.103   3.285   2.236  0.2297 -0.5229  0.3869
 6123SOL    HW119789   1.137   3.195   2.237 -1.6275 -1.2959 -0.4101
 6123SOL    HW219790   1.022   3.280   2.287 -0.7859  0.2778 -1.0733
 6124SOL     OW19791   5.294   6.812   0.956  0.1922 -0.7846 -0.3873
 6124SOL    HW119792   5.337   6.726   0.958 -0.9998 -1.3963 -0.1704
 6124SOL    HW219793   5.280   6.833   1.048  1.5824  0.2443 -0.3746
 6125SOL     OW19794   3.350   1.456   5.833  0.8258  0.2323 -0.1095
 6125SOL    HW119795   3.394   1.540   5.845  1.2444  0.1721 -1.0895
 6125SOL    HW219796   3.361   1.437   5.740 -0.7658 -0.0783 -0.2602
 6126SOL     OW19797   3.182   3.916   4.057 -0.2448 -0.3773 -0.1860
 6126SOL    HW119798   3.259   3.876   4.015 -0.4271  1.1426 -2.0900
 6126SOL    HW219799   3.109   3.895   3.999 -0.6795  0.9881 -0.1675
 6127SOL     OW19800   6.260   7.791   6.438 -0.3716  0.9302  0.0109
 6127SOL    HW119801   6.229   7.867   6.486 -1.8024 -1.2735  2.9027
 6127SOL    HW219802   6.320   7.747   6.498  1.6279  0.4520 -2.1574
 6128SOL     OW19803   1.640   1.171   7.340 -1.0366  0.1436 -0.7875
 6128SOL    HW119804   1.679   1.259   7.339  1.6182 -0.8880  0.5703
 6128SOL    HW219805   1.700   1.118   7.286 -1.8603 -1.0926 -0.5265
 6129SOL     OW19806   4.616   3.688   2.509  0.3514  0.0041 -0.2009
 6129SOL    HW119807   4.585   3.654   2.593 -0.3925  1.7948  0.2830
 6129SOL    HW219808   4.634   3.609   2.457  1.1264 -1.1434  1.7129
 6130SOL     OW19809   7.584   7.524   5.709  0.0560 -0.6047  0.8233
 6130SOL    HW119810   7.629   7.564   5.783 -0.8243  1.7305  0.1572
 6130SOL    HW219811   7.654   7.501   5.648  0.4982  2.1444  0.1984
 6131SOL     OW19812   1.533   7.740   5.513  0.7116 -0.5445  0.0783
 6131SOL    HW119813   1.586   7.672   5.553  0.0118  0.0782  2.2200
 6131SOL    HW219814   1.596   7.809   5.489  1.2445 -1.3087 -0.7996
 6132SOL     OW19815   1.330   3.527   3.656  0.3001  0.2830 -0.0807
 6132SOL    HW119816   1.424   3.511   3.665  0.3807  1.2783  1.1420
 6132SOL    HW219817   1.315   3.612   3.699 -1.2371 -0.1158  0.2697
 6133SOL     OW19818   4.011   4.777   0.378 -0.1330 -0.1327 -0.2309
 6133SOL    HW119819   4.017   4.754   0.471  1.1055  0.0981 -0.2396
 6133SOL    HW219820   3.933   4.832   0.372 -0.5189 -0.5714  0.5803
 6134SOL     OW19821   0.512   3.511   6.816 -0.6353  0.3539 -0.4803
 6134SOL    HW119822   0.606   3.527   6.807 -0.7376  0.2801 -1.8865
 6134SOL    HW219823   0.505   3.416   6.826 -0.5333  0.4035  0.0723
 6135SOL     OW19824   5.528   5.511   1.109 -0.2975 -0.3281 -0.2528
 6135SOL    HW119825   5.555   5.594   1.068 -1.0900  0.7548  1.2866
 6135SOL    HW219826   5.599   5.491   1.171 -1.0122  0.3357  0.8354
 6136SOL     OW19827   1.395   0.043   3.574  0.2943 -0.2188 -1.0389
 6136SOL    HW119828   1.355   0.065   3.658 -0.2661  0.4685 -1.4766
 6136SOL    HW219829   1.488   0.062   3.586  0.2621 -0.4067 -0.4794
 6137SOL     OW19830   4.891   2.214   5.610 -0.7113  0.1882 -0.1360
 6137SOL    HW119831   4.889   2.266   5.690 -0.5266  0.6958 -0.4602
 6137SOL    HW219832   4.923   2.128   5.638  1.9604  1.1144 -0.0845
 6138SOL     OW19833   2.227   1.853   3.826  0.2177 -0.0157 -0.2834
 6138SOL    HW119834   2.161   1.837   3.759  0.1392  2.0605 -0.7543
 6138SOL    HW219835   2.271   1.932   3.798 -0.7851  1.7966  2.7776
 6139SOL     OW19836   4.401   4.957   2.003  0.1897  0.1754  0.1058
 6139SOL    HW119837   4.414   4.905   2.082 -2.4343  0.0185  0.5073
 6139SOL    HW219838   4.345   5.030   2.031  1.5438  1.7459 -1.0356
 6140SOL     OW19839   0.553   2.350   6.316 -0.0109  0.7590 -0.2116
 6140SOL    HW119840   0.469   2.309   6.337 -0.3557  1.4998 -0.1162
 6140SOL    HW219841   0.610   2.324   6.388 -0.5980  1.5251  0.5459
 6141SOL     OW19842   4.983   3.252   7.377  0.2379 -0.6601 -0.3720
 6141SOL    HW119843   4.915   3.209   7.429  0.0144 -0.0421 -0.1479
 6141SOL    HW219844   5.021   3.181   7.325  0.2850 -1.2484  0.4316
 6142SOL     OW19845   0.974   7.980   1.699 -0.1156 -0.0862 -0.1159
 6142SOL    HW119846   1.012   8.024   1.623 -0.3560 -0.9172 -0.7337
 6142SOL    HW219847   1.001   7.888   1.689 -0.3486 -0.2502  0.6797
 6143SOL     OW19848   1.851   7.547   6.656  0.1664  0.3380  0.7391
 6143SOL    HW119849   1.833   7.519   6.746  0.4029  0.6332  0.8780
 6143SOL    HW219850   1.776   7.600   6.631 -1.2111 -1.8767 -0.1737
 6144SOL     OW19851   5.444   4.082   2.858  0.1807  0.1479 -0.2590
 6144SOL    HW119852   5.486   3.996   2.866 -0.8015 -0.6946 -3.0537
 6144SOL    HW219853   5.374   4.081   2.924  1.7126 -0.1501  1.4358
 6145SOL     OW19854   7.858   0.569   4.292  0.4576 -0.2882 -0.3749
 6145SOL    HW119855   7.889   0.509   4.360 -2.6407 -1.8080 -0.1271
 6145SOL    HW219856   7.797   0.517   4.240 -0.0303  1.8437 -2.0721
 6146SOL     OW19857   2.126   4.898   3.432  0.4086 -0.2413  0.1281
 6146SOL    HW119858   2.032   4.900   3.413  0.3699 -0.3860  0.3019
 6146SOL    HW219859   2.141   4.810   3.467  0.8476 -0.6675 -1.0941
 6147SOL     OW19860   7.407   4.605   1.916 -0.0042 -0.0859  0.0128
 6147SOL    HW119861   7.397   4.561   2.000 -1.3269 -0.3003 -0.2264
 6147SOL    HW219862   7.379   4.695   1.932 -1.5010 -0.4335 -0.4445
 6148SOL     OW19863   3.470   1.743   0.980 -0.2333 -0.0566  0.2600
 6148SOL    HW119864   3.520   1.669   1.015 -0.9099  0.3764  2.2631
 6148SOL    HW219865   3.490   1.816   1.039 -0.2515  1.1719 -1.1751
 6149SOL     OW19866   4.291   2.370   2.525 -0.1628  0.2237  0.6416
 6149SOL    HW119867   4.242   2.306   2.576  0.7416  0.8050  2.2964
 6149SOL    HW219868   4.362   2.397   2.582  0.0768  1.9503 -0.4137
 6150SOL     OW19869   3.918   6.258   0.846 -0.3317  0.4783  0.4216
 6150SOL    HW119870   3.974   6.319   0.797  0.1699  1.9541  2.6937
 6150SOL    HW219871   3.979   6.190   0.877 -0.0211  1.2981  1.6674
 6151SOL     OW19872   2.688   2.050   5.318  0.0686 -0.4179  0.1929
 6151SOL    HW119873   2.755   2.109   5.353 -1.1427  0.8067  0.5193
 6151SOL    HW219874   2.618   2.051   5.382 -1.5613  0.7061 -1.4988
 6152SOL     OW19875   8.059   1.421   3.175  0.1710 -0.1273  0.1252
 6152SOL    HW119876   8.066   1.357   3.245  0.2917 -1.3022 -0.9239
 6152SOL    HW219877   8.137   1.406   3.121 -0.4619 -0.0007 -0.8536
 6153SOL     OW19878   6.226   3.348   5.815  0.4869  0.0239 -0.2990
 6153SOL    HW119879   6.197   3.336   5.905 -0.6558 -0.5997 -0.7291
 6153SOL    HW219880   6.309   3.395   5.823  0.5073 -0.1917  1.0788
 6154SOL     OW19881   3.500   4.572   2.457 -0.3830 -0.0268  0.1267
 6154SOL    HW119882   3.450   4.504   2.502  1.6428 -0.4686  1.8850
 6154SOL    HW219883   3.503   4.543   2.366 -2.1079 -0.6570  0.2275
 6155SOL     OW19884   6.903   6.621   6.921  0.0907 -0.4664  0.0998
 6155SOL    HW119885   6.873   6.586   7.005  1.9937  0.8709  1.4091
 6155SOL    HW219886   6.974   6.562   6.894 -0.0708 -0.5046 -0.2540
 6156SOL     OW19887   1.101   1.339   0.411  0.0320  0.1789  0.0779
 6156SOL    HW119888   1.120   1.392   0.489  0.8974  1.4328 -0.9477
 6156SOL    HW219889   1.165   1.268   0.414  3.5061  2.9059 -1.9462
 6157SOL     OW19890   5.957   1.236   6.508 -0.2169  0.0032 -0.4352
 6157SOL    HW119891   5.893   1.172   6.539 -0.1129 -0.5170 -1.2722
 6157SOL    HW219892   5.904   1.310   6.480 -0.2587  1.3680  2.7460
 6158SOL     OW19893   5.252   7.863   4.582  0.1519  0.1407 -0.1767
 6158SOL    HW119894   5.333   7.897   4.543 -0.6249  0.5621 -1.5073
 6158SOL    HW219895   5.251   7.898   4.671  1.3636  0.2327 -0.1883
 6159SOL     OW19896   2.525   6.547   1.956 -0.0322 -0.5593 -0.5943
 6159SOL    HW119897   2.579   6.514   2.027  0.9061 -0.2057 -1.1364
 6159SOL    HW219898   2.442   6.572   1.998 -0.7129 -3.2970 -0.0827
 6160SOL     OW19899   4.570   6.786   2.304  0.0612 -0.5383 -0.2878
 6160SOL    HW119900   4.566   6.876   2.272 -0.8683 -0.8759 -1.1830
 6160SOL    HW219901   4.641   6.786   2.369  1.0339  0.4987 -1.3104
 6161SOL     OW19902   7.785   6.672   7.226  0.3405 -0.3052 -0.1035
 6161SOL    HW119903   7.837   6.622   7.288 -1.8075 -2.3026  0.2139
 6161SOL    HW219904   7.759   6.751   7.274  1.7753 -0.0014  0.2130
 6162SOL     OW19905   0.243   1.411   3.051  0.1805  0.4816  0.4518
 6162SOL    HW119906   0.211   1.428   2.963 -2.2064 -0.3742  1.0733
 6162SOL    HW219907   0.292   1.329   3.043 -1.9613 -0.8560  0.2416
 6163SOL     OW19908   0.343   5.867   4.772 -0.0631 -0.1962  0.3996
 6163SOL    HW119909   0.292   5.836   4.848  1.7841 -0.6494  1.5069
 6163SOL    HW219910   0.369   5.956   4.796  1.1269 -0.5977  0.6218
 6164SOL     OW19911   2.473   3.223   3.687 -0.1786 -0.3726  0.2892
 6164SOL    HW119912   2.556   3.238   3.732  0.1538 -1.4810  0.0563
 6164SOL    HW219913   2.407   3.258   3.747  0.4746  1.0648  0.2180
 6165SOL     OW19914   5.883   1.621   0.289  1.0145 -0.0245 -0.5015
 6165SOL    HW119915   5.895   1.713   0.315  2.7771  0.0336 -1.3979
 6165SOL    HW219916   5.790   1.615   0.265  0.9334  1.5903 -0.6996
 6166SOL     OW19917   7.394   6.958   6.035  0.0995  0.3507 -0.1293
 6166SOL    HW119918   7.423   7.011   6.110  0.9236  2.0587 -1.5743
 6166SOL    HW219919   7.462   6.891   6.025  0.6844  0.9300 -0.1292
 6167SOL     OW19920   1.760   2.503   2.983 -1.2320  0.2727  0.3634
 6167SOL    HW119921   1.769   2.429   3.044  0.0383  0.5231  0.5109
 6167SOL    HW219922   1.692   2.475   2.922 -0.0682 -1.5054 -0.2249
 6168SOL     OW19923   3.719   6.504   6.543 -0.5101 -0.0638 -0.2517
 6168SOL    HW119924   3.667   6.443   6.490 -1.2657 -0.5419  1.0030
 6168SOL    HW219925   3.782   6.449   6.589  0.4423  0.4024 -0.9527
 6169SOL     OW19926   2.250   7.546   5.434  0.3536 -0.2777 -0.2335
 6169SOL    HW119927   2.309   7.587   5.371  0.1927  0.0201 -0.1895
 6169SOL    HW219928   2.309   7.511   5.502  0.4892 -0.1321 -0.2766
 6170SOL     OW19929   5.350   0.795   3.386 -0.1158  0.3818  1.2534
 6170SOL    HW119930   5.325   0.703   3.396  0.5910  0.1762  1.1851
 6170SOL    HW219931   5.273   0.836   3.347  0.3936 -0.6744 -1.0136
 6171SOL     OW19932   1.140   6.319   6.879 -0.7351  0.5337 -0.0637
 6171SOL    HW119933   1.140   6.394   6.938  0.4538 -0.6613  1.5569
 6171SOL    HW219934   1.048   6.295   6.869 -0.9581  0.7792  1.3080
 6172SOL     OW19935   4.502   5.367   0.737  0.3568  0.0295  0.1541
 6172SOL    HW119936   4.499   5.294   0.799  1.3344 -0.1437  0.0224
 6172SOL    HW219937   4.590   5.403   0.747 -0.0381  1.0538  0.0535
 6173SOL     OW19938   1.901   1.463   5.219 -0.6546 -0.4305  0.1294
 6173SOL    HW119939   1.937   1.551   5.226 -0.1829 -0.5754 -0.4226
 6173SOL    HW219940   1.967   1.406   5.259 -0.3245 -0.6774 -0.7430
 6174SOL     OW19941   7.919   0.434   5.193  0.0802  0.1961 -0.1356
 6174SOL    HW119942   7.898   0.341   5.203 -2.1143  0.6937  0.5200
 6174SOL    HW219943   8.014   0.439   5.200  0.2596 -2.0102 -0.3987
 6175SOL     OW19944   2.115   5.092   2.300 -0.0885 -0.6217 -0.1154
 6175SOL    HW119945   2.058   5.096   2.223 -0.2814 -0.1823  0.0429
 6175SOL    HW219946   2.202   5.114   2.266 -0.0198 -1.2413 -0.3487
 6176SOL     OW19947   4.400   0.764   4.420 -0.4095  1.1174  0.7476
 6176SOL    HW119948   4.359   0.843   4.456 -1.1795  1.0500  0.0440
 6176SOL    HW219949   4.494   0.777   4.436 -0.1794  3.4446 -1.6625
 6177SOL     OW19950   3.960   6.532   0.996 -0.0240 -0.5036 -0.4344
 6177SOL    HW119951   3.888   6.528   0.933 -0.3067  1.9712 -0.3623
 6177SOL    HW219952   3.927   6.588   1.066  1.3097 -0.8989  0.5399
 6178SOL     OW19953   3.611   6.859   0.426  0.2136 -0.5949 -0.2877
 6178SOL    HW119954   3.642   6.927   0.367  0.1494 -0.8276 -0.5889
 6178SOL    HW219955   3.681   6.851   0.491 -0.7924  1.4216  1.1595
 6179SOL     OW19956   5.800   5.401   2.327  0.2310 -0.3325  0.0041
 6179SOL    HW119957   5.775   5.316   2.291  0.4427 -0.2083 -0.4436
 6179SOL    HW219958   5.723   5.456   2.315  0.8125  0.1652 -1.7448
 6180SOL     OW19959   6.189   0.434   3.463 -0.2607  0.8171  0.1221
 6180SOL    HW119960   6.227   0.348   3.478  0.5075  0.7475 -1.9411
 6180SOL    HW219961   6.219   0.486   3.538 -0.4516 -0.5861  1.2149
 6181SOL     OW19962   4.191   2.816   1.448 -0.2762 -0.5700 -0.1787
 6181SOL    HW119963   4.284   2.837   1.450 -0.2422 -0.7813  1.7533
 6181SOL    HW219964   4.153   2.867   1.519 -1.2675 -2.0892  0.4346
 6182SOL     OW19965   7.357   7.847   5.120 -0.6123  0.5349  0.1512
 6182SOL    HW119966   7.366   7.862   5.026 -1.0229 -0.9370 -0.1564
 6182SOL    HW219967   7.292   7.777   5.127  0.2691 -0.2016  1.4636
 6183SOL     OW19968   1.534   0.424   7.238 -0.3644  0.3713  0.1733
 6183SOL    HW119969   1.583   0.375   7.172 -2.8635 -1.1911 -0.6650
 6183SOL    HW219970   1.485   0.357   7.287 -0.8965  1.7451  1.6348
 6184SOL     OW19971   1.553   2.092   7.059  0.5031 -0.0612  0.0756
 6184SOL    HW119972   1.540   2.176   7.102 -1.2744 -1.1129  1.8244
 6184SOL    HW219973   1.478   2.084   7.000  0.9000 -0.2267 -0.4065
 6185SOL     OW19974   7.783   4.114   4.083 -0.0093 -0.2477  0.0421
 6185SOL    HW119975   7.811   4.030   4.119  0.8784  0.1333  0.2587
 6185SOL    HW219976   7.752   4.163   4.158  2.0332  0.6239  0.3688
 6186SOL     OW19977   2.070   0.231   2.166  0.2889  0.2231  0.2391
 6186SOL    HW119978   2.054   0.175   2.091  2.2493  0.3561 -0.3091
 6186SOL    HW219979   2.059   0.320   2.132  0.4523  0.2651  0.2966
 6187SOL     OW19980   3.987   7.999   4.609  0.2056 -0.1340  0.1079
 6187SOL    HW119981   4.043   7.933   4.569 -0.6682  0.0731 -1.5390
 6187SOL    HW219982   4.017   8.004   4.700  2.0345 -0.8722 -0.4104
 6188SOL     OW19983   7.935   6.424   5.277 -0.1982  0.3419 -0.0038
 6188SOL    HW119984   7.997   6.491   5.246  0.6137  0.1323  1.0993
 6188SOL    HW219985   7.849   6.465   5.267  0.3075  1.7766  1.0969
 6189SOL     OW19986   2.239   4.173   1.590 -0.0546  0.5120 -0.1663
 6189SOL    HW119987   2.304   4.117   1.547  1.6307  2.2460 -0.0022
 6189SOL    HW219988   2.246   4.151   1.683 -0.2257  0.2197 -0.2182
 6190SOL     OW19989   5.933   6.120   0.208  0.1686 -0.4152 -0.0225
 6190SOL    HW119990   5.978   6.130   0.124  0.5155 -1.4843  0.0308
 6190SOL    HW219991   5.843   6.098   0.184 -0.2591  1.2709 -0.1208
 6191SOL     OW19992   4.976   3.226   6.246 -0.6220 -0.3497  0.3992
 6191SOL    HW119993   4.933   3.261   6.168 -0.0098 -0.3538  0.0613
 6191SOL    HW219994   4.976   3.131   6.233  0.6006 -0.2831 -0.1898
 6192SOL     OW19995   6.926   0.472   6.847 -0.2032 -0.1534  0.1814
 6192SOL    HW119996   6.842   0.479   6.801 -0.6573 -1.2811  0.7891
 6192SOL    HW219997   6.933   0.379   6.869  1.1207 -0.0355  0.3090
 6193SOL     OW19998   6.757   2.475   0.048  0.3404  0.2431 -0.0928
 6193SOL    HW119999   6.687   2.467  -0.017 -1.1755  1.1126  1.3592
 6193SOL    HW220000   6.749   2.398   0.103 -0.0967  0.8083  0.6459
 6194SOL     OW20001   7.626   6.402   6.313 -0.1363  0.2128  0.1463
 6194SOL    HW120002   7.662   6.391   6.225  1.8695  1.2305  0.7676
 6194SOL    HW220003   7.538   6.436   6.299  0.4468  1.1691 -1.4840
 6195SOL     OW20004   5.418   7.947   6.203 -0.3618 -0.0901  0.0937
 6195SOL    HW120005   5.395   8.030   6.162 -0.3014 -0.9938 -1.8591
 6195SOL    HW220006   5.471   7.973   6.279  0.8071  1.6297 -1.2202
 6196SOL     OW20007   5.072   3.804   0.101 -0.7510 -0.4619 -0.0741
 6196SOL    HW120008   5.096   3.895   0.118  0.2253 -1.0432  2.0600
 6196SOL    HW220009   5.051   3.769   0.188 -0.2959 -2.4710 -0.7261
 6197SOL     OW20010   1.998   1.052   2.436 -0.3490 -0.0039  0.7048
 6197SOL    HW120011   2.046   1.119   2.388 -0.7712 -1.3608 -1.8013
 6197SOL    HW220012   2.062   0.982   2.450 -0.7178 -0.4331  0.3084
 6198SOL     OW20013   0.612   4.600   4.869 -0.2840 -0.2760 -0.6030
 6198SOL    HW120014   0.699   4.620   4.833 -1.0936 -0.2193 -2.6511
 6198SOL    HW220015   0.588   4.516   4.830 -0.6215 -0.9741  1.0129
 6199SOL     OW20016   7.679   7.028   5.029  0.0345 -0.1086  0.0022
 6199SOL    HW120017   7.737   7.085   5.080 -0.1539 -0.8298  1.0545
 6199SOL    HW220018   7.686   7.060   4.939 -0.6736  2.1078  0.6680
 6200SOL     OW20019   6.273   0.906   5.372 -0.0988  0.5186 -0.0098
 6200SOL    HW120020   6.300   0.856   5.296  0.4610 -0.5223  0.8491
 6200SOL    HW220021   6.351   0.911   5.427 -0.2051  2.1373  0.0486
 6201SOL     OW20022   7.108   6.620   0.772  0.0707 -0.2488  0.3220
 6201SOL    HW120023   7.176   6.677   0.736 -0.9468 -0.0166 -1.3121
 6201SOL    HW220024   7.096   6.652   0.862  2.3182 -0.5285  0.7883
 6202SOL     OW20025   5.215   0.508   2.850 -0.0349 -0.3790  0.6960
 6202SOL    HW120026   5.236   0.586   2.800  2.3704 -0.8754  0.8226
 6202SOL    HW220027   5.133   0.476   2.811  0.7317  0.3055 -1.6201
 6203SOL     OW20028   6.871   4.886   1.451 -0.3356 -0.3159 -0.0190
 6203SOL    HW120029   6.949   4.845   1.488  0.6259  1.1869 -0.2777
 6203SOL    HW220030   6.866   4.854   1.361  0.4226  0.1229 -0.2284
 6204SOL     OW20031   1.979   4.926   3.034  0.1891  0.2685 -0.0500
 6204SOL    HW120032   1.897   4.900   3.076  1.0377 -0.1112  1.4545
 6204SOL    HW220033   1.998   4.856   2.972 -0.3084  0.0658  0.0196
 6205SOL     OW20034   1.720   5.929   0.219  0.0101 -0.2634  0.2647
 6205SOL    HW120035   1.638   5.885   0.199  0.0715 -0.0027 -0.6049
 6205SOL    HW220036   1.780   5.859   0.244 -0.7308 -0.3693  1.8248
 6206SOL     OW20037   4.745   0.185   1.090 -0.2582  0.4933 -0.1798
 6206SOL    HW120038   4.804   0.170   1.016  0.5057  0.8706  0.3393
 6206SOL    HW220039   4.696   0.264   1.066 -1.6804 -0.6627 -1.2901
 6207SOL     OW20040   5.009   1.937   0.078  0.3846  0.3419  0.4183
 6207SOL    HW120041   4.989   1.976   0.163  0.3807  1.3242 -0.0193
 6207SOL    HW220042   4.988   2.006   0.014  0.0675 -0.4948 -0.4032
 6208SOL     OW20043   0.054   5.824   5.675  0.3196 -0.2908 -0.0859
 6208SOL    HW120044   0.084   5.821   5.766 -0.8198  0.5167  0.3398
 6208SOL    HW220045   0.099   5.899   5.638  0.7109 -0.5628 -0.1721
 6209SOL     OW20046   7.290   4.452   2.810  0.5485 -0.2970  0.4147
 6209SOL    HW120047   7.198   4.471   2.793  1.1212  1.8429 -0.6924
 6209SOL    HW220048   7.308   4.495   2.894  1.2042  1.9992 -0.8206
 6210SOL     OW20049   5.409   5.942   4.528 -1.0690  0.1381 -0.7593
 6210SOL    HW120050   5.495   5.905   4.544 -0.1666  2.6310  0.7555
 6210SOL    HW220051   5.368   5.883   4.465  1.3298 -1.6680 -0.7399
 6211SOL     OW20052   6.943   5.197   7.708  0.6357 -0.6501  0.2121
 6211SOL    HW120053   7.002   5.246   7.765  1.6087 -0.3927 -0.9677
 6211SOL    HW220054   6.855   5.224   7.733  1.1275  2.7658 -1.2640
 6212SOL     OW20055   1.070   5.874   6.872  0.5659  0.0302 -0.5156
 6212SOL    HW120056   1.036   5.860   6.784 -0.1397  3.1360 -0.8240
 6212SOL    HW220057   1.152   5.921   6.859  0.9094 -0.2598  0.4906
 6213SOL     OW20058   2.274   4.544   5.329  0.1284 -0.9034 -1.0106
 6213SOL    HW120059   2.249   4.636   5.343 -0.2844 -1.2110  0.4149
 6213SOL    HW220060   2.326   4.522   5.406  1.3690 -1.4951 -1.9861
 6214SOL     OW20061   2.500   2.980   0.465 -0.6024  0.1495  0.0935
 6214SOL    HW120062   2.587   2.953   0.497 -1.5723 -0.8789  2.0678
 6214SOL    HW220063   2.518   3.038   0.392  1.7380 -1.2156 -0.5272
 6215SOL     OW20064   5.011   2.953   4.588  0.1506  0.1253 -0.1229
 6215SOL    HW120065   4.934   2.926   4.638  1.5159 -0.4962  1.7932
 6215SOL    HW220066   4.996   2.918   4.500 -0.9407 -1.5993  0.6797
 6216SOL     OW20067   6.364   7.328   0.037 -0.1525 -0.3180 -0.0058
 6216SOL    HW120068   6.323   7.252   0.078 -0.4560 -0.9270 -1.3742
 6216SOL    HW220069   6.381   7.388   0.110 -0.8697 -1.2475  0.9673
 6217SOL     OW20070   6.434   4.350   2.682  0.2843 -0.6424 -0.9094
 6217SOL    HW120071   6.352   4.301   2.678  0.7411 -1.4274 -0.9595
 6217SOL    HW220072   6.502   4.282   2.686  0.9360 -0.0099 -1.0152
 6218SOL     OW20073   2.304   0.931   2.257 -0.2053  0.0540 -0.7071
 6218SOL    HW120074   2.374   0.907   2.318  1.0343  0.6971 -1.8059
 6218SOL    HW220075   2.321   0.877   2.179  0.6846  2.0220 -1.9729
 6219SOL     OW20076   3.955   6.204   0.349  0.4242  0.0578 -0.5378
 6219SOL    HW120077   3.873   6.251   0.365  0.9789  0.6899  0.5817
 6219SOL    HW220078   4.008   6.266   0.298  1.5812  1.1799  1.8802
 6220SOL     OW20079   1.116   6.701   3.311 -0.0888 -0.0474 -0.5772
 6220SOL    HW120080   1.033   6.705   3.263 -0.6589  1.1982  0.4479
 6220SOL    HW220081   1.167   6.774   3.277 -0.3409  0.5952  0.3789
 6221SOL     OW20082   5.362   2.141   1.130  0.4149  0.4655  0.8113
 6221SOL    HW120083   5.409   2.120   1.211  0.8290 -2.6012 -0.0992
 6221SOL    HW220084   5.270   2.123   1.149  0.3561  0.8273  0.8885
 6222SOL     OW20085   5.035   6.859   6.066 -0.2605  0.3974 -0.1947
 6222SOL    HW120086   5.036   6.951   6.093  0.6716  0.2688  0.2245
 6222SOL    HW220087   5.077   6.859   5.980 -0.9044  0.4483 -0.5205
 6223SOL     OW20088   6.375   3.589   5.923 -0.0126  0.2681  0.0621
 6223SOL    HW120089   6.343   3.678   5.904  0.3463  0.6798  1.3024
 6223SOL    HW220090   6.300   3.543   5.960 -0.3884 -0.1744 -1.2083
 6224SOL     OW20091   7.548   2.665   0.695  0.5207 -0.6408 -0.5137
 6224SOL    HW120092   7.628   2.625   0.730  1.0638  0.2447 -0.7017
 6224SOL    HW220093   7.560   2.759   0.708 -1.4869 -0.5846  1.5139
 6225SOL     OW20094   7.331   0.748   0.247  0.0346  0.1152  0.1259
 6225SOL    HW120095   7.314   0.686   0.318 -0.4851  0.4675  0.3127
 6225SOL    HW220096   7.326   0.834   0.288  0.2639  0.3026 -0.2343
 6226SOL     OW20097   3.645   5.597   3.699  0.0924  0.4768 -0.0289
 6226SOL    HW120098   3.572   5.630   3.751 -2.0942 -1.8025 -1.3648
 6226SOL    HW220099   3.663   5.666   3.636  0.5550  1.9246  1.6352
 6227SOL     OW20100   3.096   1.476   3.193 -0.0805 -0.0974  0.4174
 6227SOL    HW120101   3.157   1.421   3.242  0.4229  0.0690 -0.0212
 6227SOL    HW220102   3.098   1.441   3.104 -1.5872 -0.9061  0.6593
 6228SOL     OW20103   2.513   4.767   2.200 -0.0534  0.1396  0.0570
 6228SOL    HW120104   2.570   4.714   2.254 -0.1473  1.6796  1.7646
 6228SOL    HW220105   2.520   4.729   2.112  1.7158 -1.1598  0.7121
 6229SOL     OW20106   2.840   1.975   3.457 -0.0294 -0.2558  0.1311
 6229SOL    HW120107   2.746   1.969   3.437  0.4392 -2.0103 -1.8685
 6229SOL    HW220108   2.880   1.903   3.408  2.4810  0.9028  0.3317
 6230SOL     OW20109   3.655   5.110   1.749 -0.1139  0.1969  0.7573
 6230SOL    HW120110   3.584   5.172   1.767 -3.1616 -2.5094 -0.9071
 6230SOL    HW220111   3.678   5.127   1.658 -0.6486 -0.7327  0.4356
 6231SOL     OW20112   3.163   4.065   0.358 -0.5439 -0.2695  0.3214
 6231SOL    HW120113   3.193   4.056   0.448  1.6189  3.2938  0.1377
 6231SOL    HW220114   3.067   4.067   0.364 -0.4423 -0.4373  2.4886
 6232SOL     OW20115   7.616   5.322   0.534 -0.7038 -0.2191  0.2650
 6232SOL    HW120116   7.585   5.396   0.481 -0.5727 -1.4511 -1.6157
 6232SOL    HW220117   7.538   5.293   0.582 -1.2299 -0.1041 -0.5058
 6233SOL     OW20118   7.787   2.080   2.498  0.2271 -0.0672 -0.4160
 6233SOL    HW120119   7.733   2.122   2.431 -0.0856 -0.7303 -0.5869
 6233SOL    HW220120   7.778   2.137   2.575  0.7930  0.8386 -1.0044
 6234SOL     OW20121   6.151   5.043   2.435  0.2765  0.2346 -0.5534
 6234SOL    HW120122   6.147   5.127   2.480 -1.6183  0.1135 -0.3962
 6234SOL    HW220123   6.192   4.984   2.498  1.9213  1.0736 -0.7889
 6235SOL     OW20124   2.529   6.450   5.060 -0.2056  0.0864 -0.0904
 6235SOL    HW120125   2.548   6.516   5.127 -0.6913 -0.2847  0.4200
 6235SOL    HW220126   2.610   6.445   5.008  0.5448 -0.3454  1.0829
 6236SOL     OW20127   3.040   4.607   3.677  0.1266  0.4369 -0.0170
 6236SOL    HW120128   3.078   4.559   3.603 -1.2802 -2.4615  0.9988
 6236SOL    HW220129   3.111   4.612   3.741  0.7679  1.2203 -0.7613
 6237SOL     OW20130   1.296   6.948   3.686  0.3696 -0.0034 -0.3188
 6237SOL    HW120131   1.309   6.944   3.591  0.4515 -0.1935 -0.3006
 6237SOL    HW220132   1.211   6.908   3.700 -0.3988  1.5089 -0.4658
 6238SOL     OW20133   2.933   7.754   4.260 -0.0969 -0.0682 -0.1249
 6238SOL    HW120134   2.997   7.825   4.259 -1.3887  1.2654  2.4976
 6238SOL    HW220135   2.979   7.680   4.220  2.9901  0.8908  1.3318
 6239SOL     OW20136   4.915   3.797   5.032  0.7435 -0.2645  0.4630
 6239SOL    HW120137   4.961   3.875   5.001  2.4336 -0.9206  1.2357
 6239SOL    HW220138   4.857   3.829   5.101  0.6124  0.4619  0.0251
 6240SOL     OW20139   0.042   1.435   1.059 -0.8302 -0.2155 -0.3047
 6240SOL    HW120140   0.116   1.473   1.010 -1.4086  1.8489  0.3033
 6240SOL    HW220141   0.024   1.352   1.015  1.9727 -0.9073 -0.3459
 6241SOL     OW20142   1.113   0.737   5.327  0.1763 -0.1088 -0.3737
 6241SOL    HW120143   1.145   0.650   5.351 -0.9218 -0.3897  0.1812
 6241SOL    HW220144   1.049   0.720   5.257 -0.9843  0.0895  0.6034
 6242SOL     OW20145   0.906   4.541   7.638  0.4807  0.0871  0.0656
 6242SOL    HW120146   0.958   4.621   7.634  0.6227  0.0168  0.4578
 6242SOL    HW220147   0.956   4.483   7.695  0.8151 -0.6035 -0.8980
 6243SOL     OW20148   2.705   4.345   0.552 -0.3140 -0.3209  0.1802
 6243SOL    HW120149   2.695   4.313   0.641  0.5565 -0.4255  0.2482
 6243SOL    HW220150   2.656   4.282   0.498  2.0774 -2.3972  0.2098
 6244SOL     OW20151   3.501   0.100   7.142  0.3867 -0.0485  0.1051
 6244SOL    HW120152   3.492   0.026   7.203  0.7209 -0.2592 -0.0983
 6244SOL    HW220153   3.594   0.119   7.142  0.3175  0.2879  0.0507
 6245SOL     OW20154   4.621   6.658   8.006  0.5700  0.1451  0.1278
 6245SOL    HW120155   4.652   6.615   8.086 -1.2237  1.7679  1.7945
 6245SOL    HW220156   4.654   6.748   8.012 -0.4646  0.5798 -0.4293
 6246SOL     OW20157   3.449   3.338   0.745  0.8273  0.1683 -0.1018
 6246SOL    HW120158   3.541   3.365   0.734  0.4812  1.7813  0.6948
 6246SOL    HW220159   3.441   3.318   0.838 -0.2593  2.7700  0.4442
 6247SOL     OW20160   1.276   4.098   3.550  0.2309 -0.1437  0.3629
 6247SOL    HW120161   1.213   4.141   3.609 -0.7938 -1.2180  0.0987
 6247SOL    HW220162   1.346   4.069   3.608 -0.4008 -0.5231  0.9604
 6248SOL     OW20163   0.024   4.871   7.047 -0.0939  0.1558 -0.4896
 6248SOL    HW120164  -0.019   4.895   6.965 -2.1646 -1.4487  0.0269
 6248SOL    HW220165  -0.048   4.862   7.110  1.4729  2.0267  1.7500
 6249SOL     OW20166   3.239   1.740   3.559  0.1916  0.0448 -0.4637
 6249SOL    HW120167   3.206   1.736   3.649  0.5558  0.2775 -0.3201
 6249SOL    HW220168   3.160   1.733   3.505 -0.1987  1.3751 -0.1160
 6250SOL     OW20169   3.681   0.843   5.819  0.5295 -0.1286  0.2738
 6250SOL    HW120170   3.674   0.764   5.872  2.6342 -0.2107  0.4994
 6250SOL    HW220171   3.654   0.815   5.731  0.1821 -0.8146  0.5929
 6251SOL     OW20172   0.896   3.423   1.573 -0.2748  0.3733 -0.1908
 6251SOL    HW120173   0.944   3.439   1.492  0.7712  2.3119  0.7404
 6251SOL    HW220174   0.921   3.334   1.599 -0.8036 -0.3583 -2.0621
 6252SOL     OW20175   1.892   7.223   1.889 -0.3122  0.1094 -0.1795
 6252SOL    HW120176   1.912   7.265   1.972  1.8656  1.1793 -1.1686
 6252SOL    HW220177   1.797   7.234   1.879 -0.5039  0.5812  1.8014
 6253SOL     OW20178   1.312   5.825   2.299  0.4287 -0.2320 -0.0968
 6253SOL    HW120179   1.383   5.864   2.349  1.0854 -0.3121 -0.9452
 6253SOL    HW220180   1.296   5.741   2.341 -0.0403  0.3247  0.8772
 6254SOL     OW20181   7.067   3.900   2.492 -0.2457  0.0682  0.6020
 6254SOL    HW120182   7.146   3.955   2.492 -1.3620  1.7998 -0.8103
 6254SOL    HW220183   7.093   3.820   2.449  0.4039  1.2512 -1.3256
 6255SOL     OW20184   4.402   3.889   2.670  0.0766 -0.1872 -0.3261
 6255SOL    HW120185   4.378   3.818   2.611 -1.3679  0.4405 -0.5349
 6255SOL    HW220186   4.476   3.933   2.627  1.3711 -1.8684  0.0785
 6256SOL     OW20187   6.367   1.279   5.057  0.2315  0.0156 -0.4974
 6256SOL    HW120188   6.319   1.354   5.091  1.6152  0.6325  0.1853
 6256SOL    HW220189   6.451   1.281   5.104  1.4788 -0.2155 -2.5751
 6257SOL     OW20190   7.462   1.289   0.155 -0.5874  0.1055  0.2994
 6257SOL    HW120191   7.542   1.304   0.105 -0.2045  0.7717  1.0821
 6257SOL    HW220192   7.488   1.230   0.225 -1.0996 -0.7510 -0.2118
 6258SOL     OW20193   7.963   1.038   7.806 -0.3705  0.2076  0.2089
 6258SOL    HW120194   7.950   0.955   7.852 -1.1800  0.2633  0.0950
 6258SOL    HW220195   8.056   1.038   7.782 -0.3640 -0.6724  0.2043
 6259SOL     OW20196   7.691   2.659   8.004 -0.1500 -0.4281 -0.1407
 6259SOL    HW120197   7.657   2.610   7.929  1.0434  0.8407 -1.5739
 6259SOL    HW220198   7.786   2.657   7.992 -0.0396  1.7869  0.0187
 6260SOL     OW20199   8.021   4.795   5.057 -0.4075  0.1348 -0.4510
 6260SOL    HW120200   7.933   4.814   5.026 -1.0490 -1.3632  0.3504
 6260SOL    HW220201   8.011   4.780   5.151  0.5928 -0.6220 -0.4403
 6261SOL     OW20202   0.034   2.113   2.323  0.0884  0.2571 -0.0385
 6261SOL    HW120203   0.028   2.097   2.417  0.5230  1.4546  0.2087
 6261SOL    HW220204  -0.052   2.090   2.289 -0.8956  2.1078  1.0361
 6262SOL     OW20205   7.030   2.500   0.060 -0.4853 -0.1304 -0.3821
 6262SOL    HW120206   6.934   2.506   0.056 -0.6344 -0.6141  1.3524
 6262SOL    HW220207   7.047   2.454   0.142  1.3153  2.7767  1.0378
 6263SOL     OW20208   2.154   3.016   0.804 -0.0613 -0.2626  0.0912
 6263SOL    HW120209   2.060   2.997   0.808  0.2380 -2.0123 -0.5625
 6263SOL    HW220210   2.191   2.946   0.751  1.7925 -0.2126  1.2302
 6264SOL     OW20211   5.331   7.171   5.747 -0.5359 -0.0569  0.0345
 6264SOL    HW120212   5.329   7.196   5.654 -3.0278 -2.2670 -0.6156
 6264SOL    HW220213   5.331   7.254   5.794  1.9650  1.1668 -1.8648
 6265SOL     OW20214   2.014   3.928   4.288 -0.0713  0.3550 -0.0827
 6265SOL    HW120215   2.087   3.879   4.326  1.8402  0.6996 -2.9566
 6265SOL    HW220216   2.043   4.019   4.291 -1.4460  0.7861  0.8057
 6266SOL     OW20217   7.490   3.751   3.234 -0.5137  0.7304  0.0672
 6266SOL    HW120218   7.472   3.839   3.200  0.5051  1.2079  0.7217
 6266SOL    HW220219   7.584   3.752   3.254 -0.5079 -0.4856  0.1607
 6267SOL     OW20220   4.853   2.473   7.209 -0.1809  0.5286 -0.0630
 6267SOL    HW120221   4.910   2.431   7.273  0.4748 -0.9556 -1.5420
 6267SOL    HW220222   4.897   2.555   7.187 -0.7890  1.4319  1.8740
 6268SOL     OW20223   5.299   2.469   5.341  0.3163  0.2107 -0.0240
 6268SOL    HW120224   5.342   2.409   5.281 -0.3550 -0.5440  0.2301
 6268SOL    HW220225   5.345   2.552   5.329 -0.7410  0.5210 -2.6977
 6269SOL     OW20226   6.283   4.027   5.289  0.6814  0.3321  0.2262
 6269SOL    HW120227   6.335   3.960   5.332 -0.4112  0.2639  1.4792
 6269SOL    HW220228   6.271   3.995   5.199  1.9986 -0.0790  0.1828
 6270SOL     OW20229   7.553   2.092   2.808  0.6033  0.0530 -0.3597
 6270SOL    HW120230   7.592   2.006   2.798  0.7003  0.2679 -2.2311
 6270SOL    HW220231   7.625   2.154   2.797  0.4709  0.4042  0.5945
 6271SOL     OW20232   0.215   6.639   6.142  0.2796  0.5629 -0.0693
 6271SOL    HW120233   0.267   6.704   6.096  1.8995 -0.9244 -0.4378
 6271SOL    HW220234   0.209   6.565   6.082  1.5527 -1.0162  1.6004
 6272SOL     OW20235   0.908   1.953   6.951 -0.2025 -0.5741  0.0432
 6272SOL    HW120236   0.989   1.962   7.002 -0.6322 -2.0438  1.0473
 6272SOL    HW220237   0.840   1.988   7.009 -0.4402 -0.3671 -0.3560
 6273SOL     OW20238   5.666   5.768   4.597  0.3150  0.2142  0.6385
 6273SOL    HW120239   5.726   5.780   4.670 -1.7244  1.0626  2.2791
 6273SOL    HW220240   5.684   5.679   4.566  1.4015 -0.0882  2.0174
 6274SOL     OW20241   6.063   6.749   6.575 -0.4782 -0.0516 -0.3891
 6274SOL    HW120242   6.013   6.781   6.501 -1.2219  2.0434  0.9195
 6274SOL    HW220243   6.014   6.673   6.607 -0.4283 -0.6418 -1.6878
 6275SOL     OW20244   7.205   6.419   3.114 -0.1516  0.1850  0.1047
 6275SOL    HW120245   7.226   6.330   3.143 -0.2629 -0.4111 -1.5336
 6275SOL    HW220246   7.287   6.467   3.121  0.5598 -0.7494 -1.3880
 6276SOL     OW20247   2.497   7.335   2.365 -0.2499  0.2879 -0.2379
 6276SOL    HW120248   2.576   7.388   2.362 -0.3656  0.5286  0.7853
 6276SOL    HW220249   2.443   7.374   2.434 -1.7926  0.8419 -1.6849
 6277SOL     OW20250   5.318   2.589   4.953  0.2824  0.4137 -0.0162
 6277SOL    HW120251   5.321   2.502   4.992 -0.4836  0.9929  1.3996
 6277SOL    HW220252   5.225   2.604   4.934  0.4462  0.7983 -0.5688
 6278SOL     OW20253   0.299   4.736   0.831  0.1772 -0.2511  0.0818
 6278SOL    HW120254   0.288   4.654   0.781 -0.3642 -0.2197  0.1457
 6278SOL    HW220255   0.390   4.760   0.816 -0.0449 -0.0901 -1.1481
 6279SOL     OW20256   3.756   1.640   6.753 -0.0821 -0.0238 -0.1910
 6279SOL    HW120257   3.795   1.713   6.705  0.3301 -0.1284 -0.0171
 6279SOL    HW220258   3.830   1.589   6.785 -0.3535 -1.0393 -1.0800
 6280SOL     OW20259   4.556   2.788   0.061  0.2045  0.4647 -0.7926
 6280SOL    HW120260   4.549   2.702   0.020 -2.0443 -0.2039  0.8387
 6280SOL    HW220261   4.566   2.848  -0.013  5.3122 -1.2366 -1.9357
 6281SOL     OW20262   5.262   4.295   1.252 -0.6500  0.0732  0.1025
 6281SOL    HW120263   5.318   4.225   1.287  0.2597 -0.1331 -1.6076
 6281SOL    HW220264   5.294   4.375   1.293  0.0771 -0.2106  0.1027
 6282SOL     OW20265   7.921   0.681   7.315 -0.3740 -0.5075 -0.3274
 6282SOL    HW120266   7.857   0.752   7.308 -0.5565 -0.6090  0.2820
 6282SOL    HW220267   7.898   0.635   7.395  1.1794  0.1705  0.5559
 6283SOL     OW20268   7.768   3.395   1.362 -0.0951  0.0992 -0.8676
 6283SOL    HW120269   7.809   3.458   1.422 -0.0068  0.5034 -1.3430
 6283SOL    HW220270   7.680   3.384   1.396 -0.0663  0.3777 -0.6985
 6284SOL     OW20271   6.957   4.383   1.045 -0.2571  0.0686  0.2059
 6284SOL    HW120272   7.029   4.327   1.016  1.0490 -0.0753  3.3572
 6284SOL    HW220273   6.890   4.322   1.076 -0.0348  0.2184  0.9927
 6285SOL     OW20274   4.967   3.674   7.495 -0.3203  0.1783 -0.0477
 6285SOL    HW120275   4.952   3.599   7.438 -0.9382 -1.2388  1.8725
 6285SOL    HW220276   4.928   3.748   7.449 -2.4832 -1.2536 -0.6637
 6286SOL     OW20277   7.658   6.449   3.220  0.5001 -0.1556 -0.3115
 6286SOL    HW120278   7.717   6.521   3.241 -1.9855  2.3549 -1.2446
 6286SOL    HW220279   7.600   6.443   3.296 -0.9481  0.7103 -1.3009
 6287SOL     OW20280   5.694   6.606   4.451 -0.3237  0.0265  0.2332
 6287SOL    HW120281   5.700   6.696   4.482  0.1466 -0.2563  1.0024
 6287SOL    HW220282   5.771   6.562   4.489 -0.7464 -0.7827  0.1832
 6288SOL     OW20283   5.284   3.818   3.447 -0.4604  0.0091  0.1794
 6288SOL    HW120284   5.287   3.779   3.534 -1.5263  0.0262  0.2433
 6288SOL    HW220285   5.278   3.912   3.462 -3.5503 -0.0931  0.2339
 6289SOL     OW20286   5.731   0.209   0.965  0.3636 -0.5131 -0.4731
 6289SOL    HW120287   5.744   0.304   0.957  1.7288 -0.7514 -1.2588
 6289SOL    HW220288   5.727   0.193   1.059 -2.8562  0.6722 -0.2767
 6290SOL     OW20289   1.381   0.839   0.494  0.0974  0.0079 -0.3203
 6290SOL    HW120290   1.413   0.751   0.474 -0.7174 -0.1736 -0.8647
 6290SOL    HW220291   1.340   0.830   0.581  1.3328  0.2044  0.3029
 6291SOL     OW20292   3.513   6.760   1.622  0.3320 -0.2326  0.6704
 6291SOL    HW120293   3.456   6.785   1.694  0.2930 -0.0188  0.5662
 6291SOL    HW220294   3.461   6.699   1.569 -1.1867  2.6724 -1.4502
 6292SOL     OW20295   6.909   6.012   1.370  0.2069  0.4568  0.0778
 6292SOL    HW120296   6.869   5.961   1.299  1.8004 -2.0114  0.8479
 6292SOL    HW220297   7.000   6.022   1.344  0.6243  0.2206  1.4004
 6293SOL     OW20298   4.919   1.651   2.199 -0.1154  0.7597 -0.1875
 6293SOL    HW120299   4.978   1.724   2.220 -0.5335  0.8745  0.6452
 6293SOL    HW220300   4.851   1.689   2.145  0.4905  0.6548 -1.0458
 6294SOL     OW20301   0.860   3.893   2.450  0.5218 -0.2238  0.3781
 6294SOL    HW120302   0.817   3.904   2.365  0.5445  3.0162  0.6408
 6294SOL    HW220303   0.866   3.982   2.485  2.7244 -1.1647  2.7109
 6295SOL     OW20304   5.436   7.686   6.580 -0.2023  0.1486  0.0808
 6295SOL    HW120305   5.405   7.607   6.537  0.1596  0.4310 -0.7162
 6295SOL    HW220306   5.482   7.655   6.657 -0.4130 -0.3920 -0.0049
 6296SOL     OW20307   5.076   5.611   0.228 -0.3242  0.4084 -0.0306
 6296SOL    HW120308   5.001   5.636   0.281  0.7869 -0.1613  1.8970
 6296SOL    HW220309   5.124   5.549   0.282  1.3339  0.4557 -1.3721
 6297SOL     OW20310   3.656   1.085   2.154  0.1472  0.1784  0.1421
 6297SOL    HW120311   3.735   1.032   2.159  0.3962  0.6262  1.3312
 6297SOL    HW220312   3.602   1.042   2.088  0.0277 -1.9768  1.5501
 6298SOL     OW20313   1.466   5.059   6.712 -0.1286  0.1419  0.5048
 6298SOL    HW120314   1.462   5.072   6.618 -1.4960  1.2151  0.6663
 6298SOL    HW220315   1.555   5.084   6.736  0.1555  0.0920 -0.4607
 6299SOL     OW20316   3.451   7.975   5.073  0.1549  0.2326 -0.2096
 6299SOL    HW120317   3.471   8.068   5.057  1.5408  0.0114  0.0567
 6299SOL    HW220318   3.367   7.961   5.030 -0.3471  1.7427  0.1888
 6300SOL     OW20319   2.054   5.039   7.078  0.2421 -0.3542  0.1646
 6300SOL    HW120320   2.069   4.947   7.100  3.0727  0.0839  0.4927
 6300SOL    HW220321   1.976   5.039   7.023 -1.3914 -2.6165  2.2526
 6301SOL     OW20322   6.755   4.193   3.319 -0.1335  0.2807 -0.2682
 6301SOL    HW120323   6.676   4.191   3.373 -0.5667 -1.4432 -0.8849
 6301SOL    HW220324   6.759   4.282   3.285 -0.7372  0.9377  1.2949
 6302SOL     OW20325   5.858   1.617   4.589 -0.1886 -0.8953  0.0387
 6302SOL    HW120326   5.922   1.652   4.650  0.7047 -1.3512 -0.6194
 6302SOL    HW220327   5.906   1.553   4.537 -0.9951 -0.7563 -0.9254
 6303SOL     OW20328   2.400   5.835   3.684 -0.0746 -0.1037  0.6280
 6303SOL    HW120329   2.356   5.786   3.615 -1.1000 -0.7997  1.7249
 6303SOL    HW220330   2.493   5.816   3.672 -0.2083  0.0004 -0.6956
 6304SOL     OW20331   2.880   3.341   1.726 -0.0500  0.2810  0.0332
 6304SOL    HW120332   2.864   3.433   1.705 -0.2395  0.5878  1.4219
 6304SOL    HW220333   2.828   3.325   1.805 -0.2179 -1.0935 -0.3322
 6305SOL     OW20334   0.451   1.739   2.326  0.1088  0.4624 -0.3388
 6305SOL    HW120335   0.505   1.816   2.347 -0.2897  0.3187  1.3711
 6305SOL    HW220336   0.394   1.768   2.255  0.6333  1.4337 -0.3835
 6306SOL     OW20337   2.682   4.843   7.481 -0.0964  0.5375  0.6599
 6306SOL    HW120338   2.661   4.750   7.486  0.7871  0.3418  0.9773
 6306SOL    HW220339   2.627   4.877   7.410 -0.6240 -0.1655  0.7239
 6307SOL     OW20340   7.054   0.002   3.925  0.2436 -0.2279 -0.2070
 6307SOL    HW120341   7.038  -0.082   3.881  1.7815 -1.3597  1.2283
 6307SOL    HW220342   7.069   0.064   3.854  0.6387 -1.5255 -1.3134
 6308SOL     OW20343   5.665   7.626   5.109 -0.5092  0.5456 -0.3429
 6308SOL    HW120344   5.645   7.552   5.051  0.9459 -0.4955  0.4133
 6308SOL    HW220345   5.719   7.684   5.054  1.2809 -0.6735  0.0287
 6309SOL     OW20346   4.277   0.134   2.310 -0.3338 -0.1563 -0.5820
 6309SOL    HW120347   4.371   0.152   2.309 -0.4567  0.6678  0.5452
 6309SOL    HW220348   4.253   0.142   2.402 -1.8238  1.4173 -1.0515
 6310SOL     OW20349   0.463   7.290   5.691 -0.2781 -0.5844 -0.4650
 6310SOL    HW120350   0.511   7.318   5.768 -1.6273  0.6430 -0.0103
 6310SOL    HW220351   0.466   7.194   5.693  2.2077 -0.5561 -0.5599
 6311SOL     OW20352   7.058   7.643   0.138  0.0041  0.5341  0.1054
 6311SOL    HW120353   7.003   7.619   0.064  1.1723  0.7165 -0.8432
 6311SOL    HW220354   7.046   7.572   0.201 -0.1410 -0.1886 -0.7255
 6312SOL     OW20355   5.337   6.457   2.514  0.4207  0.4431 -0.0974
 6312SOL    HW120356   5.331   6.388   2.447 -0.5823  0.0143  0.4038
 6312SOL    HW220357   5.307   6.536   2.468  1.2267  0.4794 -0.5758
 6313SOL     OW20358   6.836   0.579   5.548  0.6129  0.0869  0.0593
 6313SOL    HW120359   6.896   0.608   5.480 -1.0644 -0.0170 -1.5306
 6313SOL    HW220360   6.892   0.536   5.613  2.2329  0.0349 -1.3168
 6314SOL     OW20361   0.397   2.987   6.550 -0.5021 -0.1668 -0.2654
 6314SOL    HW120362   0.446   3.018   6.625 -2.0399  1.0851  0.2655
 6314SOL    HW220363   0.443   3.023   6.474 -1.2217  2.0274  0.2643
 6315SOL     OW20364   0.596   6.152   2.207  0.3703 -0.1840 -0.1231
 6315SOL    HW120365   0.643   6.083   2.160  1.9599  1.0423 -0.3901
 6315SOL    HW220366   0.664   6.211   2.239 -0.9893  2.0531 -1.1092
 6316SOL     OW20367   5.861   4.817   1.678 -1.0701 -0.6288 -0.9648
 6316SOL    HW120368   5.902   4.751   1.733  0.4248 -0.5866 -1.9734
 6316SOL    HW220369   5.788   4.849   1.730  0.3594 -0.4731  1.0698
 6317SOL     OW20370   1.661   7.632   3.592  0.1395 -0.0403  0.2598
 6317SOL    HW120371   1.706   7.616   3.675  0.4608  3.8638  1.0353
 6317SOL    HW220372   1.574   7.664   3.617 -0.7651 -1.3357 -1.0517
 6318SOL     OW20373   1.425   7.324   0.378  0.3983 -0.4842 -0.7480
 6318SOL    HW120374   1.358   7.349   0.314 -0.7421  0.5879  0.7764
 6318SOL    HW220375   1.391   7.244   0.419 -0.3524  0.4347  0.5042
 6319SOL     OW20376   5.412   7.745   5.222  0.3256 -0.5089 -0.0129
 6319SOL    HW120377   5.360   7.673   5.257 -0.9757 -0.3076 -1.4088
 6319SOL    HW220378   5.491   7.703   5.187 -0.5622 -1.3535 -1.1045
 6320SOL     OW20379   1.791   1.882   2.565  0.0549  0.2720  0.0880
 6320SOL    HW120380   1.828   1.966   2.536  0.4731  0.3494  0.8355
 6320SOL    HW220381   1.860   1.841   2.615 -0.2512 -0.4048 -0.0379
 6321SOL     OW20382   1.892   5.499   6.805  0.4762 -0.3224 -0.6398
 6321SOL    HW120383   1.832   5.426   6.791  0.5800 -0.5395  0.0454
 6321SOL    HW220384   1.883   5.521   6.897 -0.5752  1.4385 -1.1028
 6322SOL     OW20385   5.722   0.102   5.672  0.5828  0.0455 -0.1545
 6322SOL    HW120386   5.631   0.088   5.648  0.2971  2.1200 -0.4357
 6322SOL    HW220387   5.736   0.196   5.660  2.4704 -0.0584  0.8599
 6323SOL     OW20388   5.220   2.134   7.727  0.3267 -0.1409 -0.1552
 6323SOL    HW120389   5.220   2.143   7.631  0.5952  1.0007 -0.0650
 6323SOL    HW220390   5.130   2.154   7.752  0.2107 -0.6206 -0.1736
 6324SOL     OW20391   2.555   3.703   2.298 -0.5478  0.3422  0.4426
 6324SOL    HW120392   2.622   3.690   2.230 -1.0506 -3.1518  0.4178
 6324SOL    HW220393   2.601   3.688   2.380 -0.9900 -0.8543  0.4948
 6325SOL     OW20394   5.616   1.449   0.889  0.6748 -0.1756  0.1776
 6325SOL    HW120395   5.693   1.503   0.906  0.6999  0.7188 -2.3953
 6325SOL    HW220396   5.597   1.462   0.797 -1.2005 -2.2019  0.1881
 6326SOL     OW20397   4.982   7.254   4.501 -0.2700  0.3901  0.3447
 6326SOL    HW120398   4.918   7.318   4.529 -0.8843  0.2221 -0.6279
 6326SOL    HW220399   4.966   7.243   4.407  0.1128 -0.8516  0.4059
 6327SOL     OW20400   5.713   6.325   0.939  0.1716  0.3373  0.8717
 6327SOL    HW120401   5.781   6.268   0.974  0.2996  0.4832  0.8564
 6327SOL    HW220402   5.681   6.374   1.015  1.6580  1.9467  0.5138
 6328SOL     OW20403   2.494   2.403   2.469 -0.1223  0.0701 -0.5797
 6328SOL    HW120404   2.577   2.434   2.506 -0.2480 -0.8597  0.5766
 6328SOL    HW220405   2.494   2.309   2.488 -0.8780 -0.1697 -1.6935
 6329SOL     OW20406   1.101   5.149   2.987  0.3393  0.1899  0.5637
 6329SOL    HW120407   1.187   5.175   3.021  2.1804 -1.6176 -2.2368
 6329SOL    HW220408   1.091   5.198   2.906 -1.2087  0.1677  0.7110
 6330SOL     OW20409   6.243   4.733   7.698 -0.2513  0.1448 -0.3358
 6330SOL    HW120410   6.182   4.806   7.705 -0.2928  0.2263 -1.4652
 6330SOL    HW220411   6.330   4.773   7.705 -0.2969  0.0993  0.6560
 6331SOL     OW20412   7.300   6.255   1.694 -0.0972  0.3830  0.1839
 6331SOL    HW120413   7.315   6.331   1.638 -0.0542 -1.1029 -1.9266
 6331SOL    HW220414   7.354   6.271   1.771  2.4851  1.0487 -1.6356
 6332SOL     OW20415   7.180   0.008   0.763 -0.2761  0.2968 -0.0914
 6332SOL    HW120416   7.099   0.058   0.764 -0.6409 -0.2637 -0.8750
 6332SOL    HW220417   7.247   0.070   0.794 -0.9670  0.7995  0.4161
 6333SOL     OW20418   4.623   7.479   0.486  0.4825  0.5198  1.0846
 6333SOL    HW120419   4.627   7.575   0.484  0.4686  0.6395 -3.5709
 6333SOL    HW220420   4.530   7.459   0.477  0.3855 -0.0343  2.9273
 6334SOL     OW20421   0.343   6.239   2.116  0.2079  0.4795 -0.3365
 6334SOL    HW120422   0.371   6.330   2.131 -2.7675  1.0588  2.8293
 6334SOL    HW220423   0.418   6.186   2.144  0.7915  1.9429  1.0091
 6335SOL     OW20424   1.756   2.277   5.184 -0.6168  0.2865  0.1643
 6335SOL    HW120425   1.737   2.269   5.091  2.0596 -1.5569 -0.3537
 6335SOL    HW220426   1.818   2.349   5.190 -2.1249  1.5944  0.8404
 6336SOL     OW20427   2.277   4.784   4.777 -0.4246 -0.3806 -0.2881
 6336SOL    HW120428   2.257   4.749   4.863  0.2289  0.3565  0.1741
 6336SOL    HW220429   2.282   4.879   4.790  3.1943 -0.4353 -0.3400
 6337SOL     OW20430   1.327   7.100   0.505 -0.1613 -0.3101  0.8872
 6337SOL    HW120431   1.302   7.037   0.572  1.4342 -0.7219  1.1451
 6337SOL    HW220432   1.332   7.048   0.424  2.4149 -0.8988  1.3232
 6338SOL     OW20433   5.676   0.604   6.978  0.1603 -0.0707  0.1080
 6338SOL    HW120434   5.730   0.549   7.035  0.8711  1.7146  1.2358
 6338SOL    HW220435   5.704   0.581   6.889  3.4372  1.3578  0.6451
 6339SOL     OW20436   0.775   0.285   7.747 -0.2298  0.2110  0.0081
 6339SOL    HW120437   0.722   0.350   7.701 -0.6870  0.1181  0.3908
 6339SOL    HW220438   0.846   0.265   7.687 -1.6645 -1.0640 -1.3287
 6340SOL     OW20439   3.185   6.945   3.272 -0.1193  0.4990 -0.5413
 6340SOL    HW120440   3.275   6.927   3.299 -0.0539  1.0914 -0.3538
 6340SOL    HW220441   3.184   7.039   3.254 -0.4720  0.3321 -1.4322
 6341SOL     OW20442   1.810   4.219   3.906  0.0079  0.1903 -0.3105
 6341SOL    HW120443   1.836   4.186   3.820  1.5982 -1.2810  0.6700
 6341SOL    HW220444   1.887   4.268   3.937  0.2242 -0.9439  1.0466
 6342SOL     OW20445   5.790   6.084   5.197  0.1254  0.1998 -0.0758
 6342SOL    HW120446   5.775   6.048   5.110  1.0630  0.9491 -0.5610
 6342SOL    HW220447   5.743   6.025   5.256 -2.8239  1.1559 -1.2653
 6343SOL     OW20448   7.486   0.205   6.810  0.0319 -0.4380  0.0175
 6343SOL    HW120449   7.417   0.266   6.839  0.0348 -0.5885  0.3443
 6343SOL    HW220450   7.438   0.126   6.786 -0.1251  0.1490 -1.7669
 6344SOL     OW20451   5.135   0.198   6.187  0.7923  0.0878 -0.2821
 6344SOL    HW120452   5.131   0.150   6.270  0.1655  0.1663 -0.2607
 6344SOL    HW220453   5.159   0.132   6.122 -0.0150 -0.2603 -0.2450
 6345SOL     OW20454   3.841   5.362   7.658  0.5395  0.0377 -0.1935
 6345SOL    HW120455   3.831   5.326   7.746  1.5333 -3.5522 -1.3972
 6345SOL    HW220456   3.926   5.406   7.660  0.3116  0.4765  0.7390
 6346SOL     OW20457   1.867   3.177   4.535  0.4704  0.1607 -0.3208
 6346SOL    HW120458   1.783   3.205   4.500 -0.5475  0.4784  2.1899
 6346SOL    HW220459   1.848   3.095   4.580  1.8978 -0.6823 -1.1723
 6347SOL     OW20460   3.520   1.441   7.507 -0.3233  0.3219 -0.1932
 6347SOL    HW120461   3.450   1.421   7.444 -0.1157 -0.6322 -0.1370
 6347SOL    HW220462   3.505   1.533   7.531 -1.3876  0.2156 -0.3898
 6348SOL     OW20463   1.204   4.146   1.705  0.0255 -0.1583 -0.4564
 6348SOL    HW120464   1.237   4.236   1.702  2.6968 -1.0310 -0.4249
 6348SOL    HW220465   1.113   4.154   1.734  0.7733  2.3927  1.5909
 6349SOL     OW20466   2.096   5.604   0.423 -0.2451 -0.7719 -0.3026
 6349SOL    HW120467   2.166   5.539   0.433 -0.3513 -1.4460 -3.1100
 6349SOL    HW220468   2.142   5.687   0.412 -0.0624 -0.5669  1.6998
 6350SOL     OW20469   6.178   7.965   5.461  0.0806 -0.6802 -0.2065
 6350SOL    HW120470   6.139   7.922   5.537 -1.8163  1.8139  0.3875
 6350SOL    HW220471   6.175   7.899   5.391  2.2998 -3.2024  1.8631
 6351SOL     OW20472   3.753   7.319   2.639  0.4990 -0.5132 -0.5571
 6351SOL    HW120473   3.679   7.377   2.655  0.2804 -0.5748 -1.3314
 6351SOL    HW220474   3.715   7.231   2.641  1.0495 -0.7906  2.0346
 6352SOL     OW20475   5.309   5.863   3.924 -0.6457 -0.2602  0.1668
 6352SOL    HW120476   5.258   5.799   3.972 -2.0817 -0.6841 -1.8177
 6352SOL    HW220477   5.265   5.947   3.940 -1.1513 -0.4083 -0.4413
 6353SOL     OW20478   6.600   4.882   3.568 -0.2382  0.7592  0.1391
 6353SOL    HW120479   6.597   4.800   3.518  0.4875 -0.0684  1.3959
 6353SOL    HW220480   6.694   4.900   3.578 -0.3905  1.6161  0.0870
 6354SOL     OW20481   5.725   2.138   7.686  0.1852  0.0762  0.0209
 6354SOL    HW120482   5.791   2.208   7.682 -0.2997  0.5246 -0.1502
 6354SOL    HW220483   5.715   2.109   7.596 -0.7019  0.8023 -0.1146
 6355SOL     OW20484   5.649   0.532   1.419  0.1811  0.2749  0.5102
 6355SOL    HW120485   5.677   0.444   1.445  2.8044  0.5319 -1.0592
 6355SOL    HW220486   5.584   0.519   1.351 -1.8083 -0.3730  2.4271
 6356SOL     OW20487   5.306   4.355   1.939  0.2936  0.0585  0.3877
 6356SOL    HW120488   5.245   4.287   1.910  0.6165  0.7310 -2.1382
 6356SOL    HW220489   5.339   4.324   2.024  0.0580 -2.6701 -0.4152
 6357SOL     OW20490   3.902   1.981   3.366  0.4409 -0.4643  0.1389
 6357SOL    HW120491   3.852   1.971   3.448  0.3032 -2.0570 -0.1132
 6357SOL    HW220492   3.963   1.907   3.366  0.5141 -0.4238 -1.1416
 6358SOL     OW20493   7.279   5.778   6.222 -0.1232  0.0256  0.5197
 6358SOL    HW120494   7.265   5.691   6.257 -1.0490  0.3587  0.9914
 6358SOL    HW220495   7.367   5.802   6.251  0.0567 -0.6675  0.5518
 6359SOL     OW20496   6.546   3.299   1.300 -0.2042 -0.0926  0.2373
 6359SOL    HW120497   6.595   3.219   1.319  0.3944 -0.4835 -2.4821
 6359SOL    HW220498   6.506   3.282   1.214  1.7089  3.2649 -1.5154
 6360SOL     OW20499   1.188   1.815   3.990 -0.0089  0.2605 -0.6061
 6360SOL    HW120500   1.225   1.746   3.936  1.7701  1.1282 -0.5594
 6360SOL    HW220501   1.232   1.806   4.074 -2.0487 -0.4643  0.4427
 6361SOL     OW20502   7.124   5.086   4.510  0.0731  0.0166  0.1759
 6361SOL    HW120503   7.061   5.113   4.577  0.0470  0.7467 -0.1313
 6361SOL    HW220504   7.070   5.059   4.436 -0.0070 -3.3408  1.2955
 6362SOL     OW20505   2.209   5.095   0.054  0.4373  0.0934 -0.1522
 6362SOL    HW120506   2.163   5.177   0.076 -0.2467 -0.3978  0.2888
 6362SOL    HW220507   2.256   5.073   0.134  0.2589 -0.1806 -0.1221
 6363SOL     OW20508   7.392   6.729   5.081  0.2438  0.4397 -0.4832
 6363SOL    HW120509   7.487   6.740   5.088  0.1778  1.2317 -0.7099
 6363SOL    HW220510   7.380   6.680   5.001  0.4735  0.2055 -0.3749
 6364SOL     OW20511   6.105   0.745   6.937 -0.3243 -0.7102 -0.4832
 6364SOL    HW120512   6.036   0.806   6.961  0.5060  0.4954 -1.0184
 6364SOL    HW220513   6.169   0.751   7.008 -0.1119 -0.7291 -0.6682
 6365SOL     OW20514   2.113   5.875   4.332  0.1850  0.2463 -0.0146
 6365SOL    HW120515   2.086   5.951   4.384 -1.1541  1.8139 -2.7691
 6365SOL    HW220516   2.039   5.859   4.274  0.9355 -2.4603 -0.3276
 6366SOL     OW20517   0.916   2.357   1.123 -0.1566  0.0591  0.5191
 6366SOL    HW120518   0.886   2.294   1.188 -1.0663  0.5973  0.6359
 6366SOL    HW220519   1.000   2.323   1.094 -0.2446 -0.7617  1.1872
 6367SOL     OW20520   1.741   1.346   5.968  0.3528 -0.0579 -0.3872
 6367SOL    HW120521   1.686   1.291   5.912  0.8476  0.4924 -1.4485
 6367SOL    HW220522   1.714   1.324   6.057 -0.6029 -0.8106 -0.8396
 6368SOL     OW20523   6.403   7.853   7.735 -0.2485  0.5033  0.2339
 6368SOL    HW120524   6.336   7.799   7.776 -0.4969 -0.2987 -1.1863
 6368SOL    HW220525   6.384   7.850   7.642  0.9853  1.3406 -0.0807
 6369SOL     OW20526   7.619   1.697   5.960 -0.4145  0.1791  0.9332
 6369SOL    HW120527   7.687   1.631   5.947  0.4135  1.0925  0.4870
 6369SOL    HW220528   7.544   1.648   5.995 -0.4216 -1.2922 -0.9206
 6370SOL     OW20529   0.922   7.946   4.390  0.1767  0.1786 -0.0268
 6370SOL    HW120530   0.864   7.942   4.466 -0.2108 -0.7067 -0.3553
 6370SOL    HW220531   0.863   7.961   4.316  0.4439  0.0016 -0.2765
 6371SOL     OW20532   1.741   3.548   3.432  0.0033 -0.6360  0.5170
 6371SOL    HW120533   1.677   3.505   3.489  2.0518 -1.2906  2.4856
 6371SOL    HW220534   1.735   3.501   3.349 -0.6118 -2.0818  1.3469
 6372SOL     OW20535   7.485   1.918   6.467 -0.7319 -0.1241  0.5195
 6372SOL    HW120536   7.427   1.848   6.437 -1.6380  0.8370 -0.0448
 6372SOL    HW220537   7.437   1.959   6.538 -1.6909  1.9089 -1.1953
 6373SOL     OW20538   1.190   7.552   0.657  0.0016 -0.0172 -0.0510
 6373SOL    HW120539   1.212   7.598   0.576 -0.0928 -0.4262 -0.3145
 6373SOL    HW220540   1.107   7.508   0.638  0.6742 -1.2636 -0.2146
 6374SOL     OW20541   2.400   7.313   6.990  0.0742 -0.5772  0.1508
 6374SOL    HW120542   2.306   7.328   6.998  0.0029 -1.2394  0.5944
 6374SOL    HW220543   2.423   7.351   6.905 -1.1928 -3.3245 -1.5436
 6375SOL     OW20544   5.335   3.689   3.878  0.0933 -0.1134 -0.0673
 6375SOL    HW120545   5.419   3.726   3.849  1.1287 -2.9697 -1.0761
 6375SOL    HW220546   5.353   3.659   3.967 -0.0721 -0.1255 -0.0389
 6376SOL     OW20547   4.424   1.946   3.755  0.2174 -0.7514  0.3191
 6376SOL    HW120548   4.432   1.926   3.849  2.0385 -0.8703  0.1784
 6376SOL    HW220549   4.375   2.028   3.752  0.8485 -0.3121  1.4393
 6377SOL     OW20550   6.261   4.251   2.371  0.0881 -0.5170  0.0712
 6377SOL    HW120551   6.329   4.257   2.305 -0.4182  1.9681 -0.3225
 6377SOL    HW220552   6.244   4.157   2.380  1.1831 -1.0068 -2.2561
 6378SOL     OW20553   1.727   5.259   4.407  0.2137 -0.2049  0.4197
 6378SOL    HW120554   1.765   5.342   4.379 -0.2040  0.2548  1.1743
 6378SOL    HW220555   1.741   5.200   4.333  2.2857 -0.0402  0.6138
 6379SOL     OW20556   1.825   0.435   0.577  0.0946  0.2568 -0.5550
 6379SOL    HW120557   1.920   0.440   0.588  0.0960 -0.3995 -0.2067
 6379SOL    HW220558   1.799   0.358   0.627 -0.9034  1.6305  1.1371
 6380SOL     OW20559   5.385   2.639   6.501 -0.3880 -0.1712  0.1146
 6380SOL    HW120560   5.399   2.636   6.406 -0.2871 -0.9690  0.1515
 6380SOL    HW220561   5.359   2.730   6.518 -1.3134 -0.2344 -0.8035
 6381SOL     OW20562   6.608   6.287   0.609  0.1183 -0.0242 -0.3842
 6381SOL    HW120563   6.638   6.268   0.698  0.8663  0.3865 -0.5384
 6381SOL    HW220564   6.688   6.311   0.562 -0.5307  1.6499 -0.6807
 6382SOL     OW20565   7.252   3.306   6.049  0.4573  0.1083  0.2817
 6382SOL    HW120566   7.169   3.347   6.026  1.1371  1.4651  0.1193
 6382SOL    HW220567   7.258   3.230   5.992 -1.2621 -0.7843  1.2324
 6383SOL     OW20568   7.631   5.984   2.710 -0.2183  0.1053 -0.2886
 6383SOL    HW120569   7.664   5.939   2.788  1.2410 -0.2321 -1.0625
 6383SOL    HW220570   7.640   6.077   2.730  0.9128  0.0191 -0.3425
 6384SOL     OW20571   2.073   2.250   4.402 -0.1213  0.0744 -0.3467
 6384SOL    HW120572   2.167   2.233   4.404 -0.1513 -0.0322  1.6115
 6384SOL    HW220573   2.062   2.318   4.335  1.4290  0.5596 -0.1361
 6385SOL     OW20574   2.187   4.761   8.056  0.0526  0.0362 -0.4930
 6385SOL    HW120575   2.226   4.749   8.143  0.4471  0.7780 -0.5682
 6385SOL    HW220576   2.107   4.811   8.073 -1.5078 -2.3639 -0.2017
 6386SOL     OW20577   4.237   1.993   4.863 -0.0289 -0.1504  0.4681
 6386SOL    HW120578   4.246   1.935   4.787  1.0186 -0.0566  0.5040
 6386SOL    HW220579   4.265   2.078   4.831  0.3951 -0.1070  0.9502
 6387SOL     OW20580   6.515   4.065   0.777  0.2870  0.1336 -0.1915
 6387SOL    HW120581   6.598   4.019   0.766 -0.5950 -1.8317  0.8663
 6387SOL    HW220582   6.483   4.036   0.862 -1.6693  0.4927 -0.7602
 6388SOL     OW20583   7.631   4.015   5.476  0.1629  0.1472  0.1777
 6388SOL    HW120584   7.549   4.063   5.462 -1.0029 -1.4892  0.9978
 6388SOL    HW220585   7.700   4.079   5.457 -1.2836  1.4428 -1.0096
 6389SOL     OW20586   0.596   3.175   2.707  0.1284  0.2464  0.0133
 6389SOL    HW120587   0.586   3.092   2.752 -1.8094  0.6356  0.3806
 6389SOL    HW220588   0.689   3.178   2.682  0.1015 -2.3408 -0.6977
 6390SOL     OW20589   0.762   3.665   0.420 -0.0483  0.1842  0.1152
 6390SOL    HW120590   0.822   3.597   0.451 -0.3604  0.1609  0.6843
 6390SOL    HW220591   0.707   3.685   0.496 -0.4155  0.5785 -0.2486
 6391SOL     OW20592   4.385   7.805   4.084 -0.5326 -0.3822  0.2825
 6391SOL    HW120593   4.452   7.736   4.083 -1.1347 -1.0387  1.9645
 6391SOL    HW220594   4.309   7.764   4.042 -0.9008 -0.7890  1.3109
 6392SOL     OW20595   1.239   1.041   5.545 -0.2093  0.0036  0.6288
 6392SOL    HW120596   1.205   1.130   5.552 -1.4766 -0.2166 -1.6338
 6392SOL    HW220597   1.203   0.995   5.620 -1.2408  0.9162  0.7082
 6393SOL     OW20598   7.389   1.058   4.261 -0.2275  0.3389  0.0415
 6393SOL    HW120599   7.299   1.088   4.277 -0.0731  0.8679 -0.0653
 6393SOL    HW220600   7.392   1.043   4.166 -0.5981 -1.0051  0.2183
 6394SOL     OW20601   4.115   0.166   0.878  0.0678 -0.4535 -0.2516
 6394SOL    HW120602   4.148   0.255   0.866  0.4463 -0.6944 -1.0739
 6394SOL    HW220603   4.035   0.176   0.928 -0.2803  0.4119 -0.9628
 6395SOL     OW20604   0.032   4.149   0.332 -0.1481  0.5707 -0.2711
 6395SOL    HW120605   0.061   4.089   0.264 -1.5386 -0.1324 -0.2834
 6395SOL    HW220606  -0.060   4.125   0.347  0.3194  0.2212  2.3615
 6396SOL     OW20607   1.125   3.589   2.226  0.0385  0.7550  0.6090
 6396SOL    HW120608   1.127   3.495   2.243  1.2564  0.2675 -1.7415
 6396SOL    HW220609   1.159   3.629   2.305  1.6165 -0.9623  0.8601
 6397SOL     OW20610   1.345   7.257   5.415  0.2855  0.2724  0.0007
 6397SOL    HW120611   1.284   7.324   5.447  0.1823  0.1098  0.1432
 6397SOL    HW220612   1.427   7.305   5.401  0.1051  0.5043 -0.2626
 6398SOL     OW20613   4.403   2.086   2.288  0.6955 -0.2096  0.1192
 6398SOL    HW120614   4.446   2.167   2.318 -0.5008  0.5573 -0.1519
 6398SOL    HW220615   4.439   2.017   2.343  0.8041  0.7087  1.2290
 6399SOL     OW20616   8.056   6.278   0.542  0.0801  0.1429  0.5027
 6399SOL    HW120617   8.079   6.333   0.617  0.8933  3.0119 -1.6724
 6399SOL    HW220618   7.966   6.252   0.559 -0.4208  2.3398  1.5800
 6400SOL     OW20619   2.562   6.334   2.467  0.4738  0.1468 -0.0445
 6400SOL    HW120620   2.518   6.291   2.395 -1.0038  0.3057  0.7252
 6400SOL    HW220621   2.633   6.275   2.491  0.5494 -0.2302 -1.1590
 6401SOL     OW20622   1.154   7.233   3.843  0.2341  0.5772 -0.0471
 6401SOL    HW120623   1.204   7.162   3.802 -0.3612 -0.4674  0.9539
 6401SOL    HW220624   1.120   7.194   3.924  0.6907  2.2928  1.0340
 6402SOL     OW20625   3.369   5.662   5.503  0.1689  0.1145  0.2489
 6402SOL    HW120626   3.286   5.672   5.455  0.7643  0.9353 -0.6696
 6402SOL    HW220627   3.402   5.752   5.512  0.4687 -0.1011  1.5248
 6403SOL     OW20628   0.329   3.518   0.319 -0.1997  0.6600 -0.2290
 6403SOL    HW120629   0.271   3.443   0.301  1.1576 -0.7799  1.1434
 6403SOL    HW220630   0.385   3.489   0.391 -1.2190  3.8798  2.0908
 6404SOL     OW20631   0.042   1.091   0.666 -0.4405  0.1523 -0.4130
 6404SOL    HW120632   0.086   1.153   0.724  0.7858 -1.6513  0.6770
 6404SOL    HW220633   0.030   1.013   0.719 -3.5262 -0.0403 -1.1954
 6405SOL     OW20634   0.190   4.728   1.116 -0.3862 -0.5641 -0.2624
 6405SOL    HW120635   0.217   4.819   1.131  0.1767 -0.4100 -1.9275
 6405SOL    HW220636   0.188   4.720   1.020 -0.6023 -2.2614 -0.1416
 6406SOL     OW20637   7.022   1.593   3.587 -0.3266  0.2049 -0.1405
 6406SOL    HW120638   7.098   1.554   3.542 -0.5192  0.7077 -0.9232
 6406SOL    HW220639   6.992   1.661   3.528 -1.6957 -0.3105 -0.0733
 6407SOL     OW20640   5.450   2.695   1.024 -0.1784  0.4753 -0.1527
 6407SOL    HW120641   5.511   2.621   1.016  1.1884  1.5260  0.1214
 6407SOL    HW220642   5.448   2.735   0.937  1.3518  1.7853  0.3649
 6408SOL     OW20643   3.451   0.417   0.659  0.0252  0.3616  0.3250
 6408SOL    HW120644   3.473   0.471   0.583 -0.8244  0.7571  0.3428
 6408SOL    HW220645   3.456   0.477   0.733 -2.7509  0.9700  0.1375
 6409SOL     OW20646   4.605   0.759   6.774  0.1967  0.1383  0.1759
 6409SOL    HW120647   4.517   0.798   6.771 -0.3713 -1.0992 -0.1403
 6409SOL    HW220648   4.665   0.833   6.770 -0.8331  0.9380 -1.4774
 6410SOL     OW20649   5.968   0.083   1.492 -0.0404 -0.1720 -0.0436
 6410SOL    HW120650   5.906   0.151   1.521 -1.0068 -0.8219 -0.5108
 6410SOL    HW220651   6.005   0.049   1.573 -0.5212  0.0308  0.2706
 6411SOL     OW20652   2.322   6.413   6.167  0.1049  0.2797  0.4962
 6411SOL    HW120653   2.239   6.435   6.123 -1.4961 -2.4102  1.8980
 6411SOL    HW220654   2.300   6.412   6.260  1.7308 -0.4807  0.9038
 6412SOL     OW20655   0.543   5.670   5.620  0.0300  0.0325 -0.2898
 6412SOL    HW120656   0.454   5.637   5.633 -0.1238  0.8563  0.8952
 6412SOL    HW220657   0.599   5.602   5.656  0.0224 -1.3913 -2.7887
 6413SOL     OW20658   1.195   6.419   7.899 -0.3249  0.7827 -0.4305
 6413SOL    HW120659   1.130   6.473   7.854 -0.0811 -0.0351 -1.8259
 6413SOL    HW220660   1.202   6.340   7.845 -1.0541 -0.9082  1.8363
 6414SOL     OW20661   4.173   6.730   3.703  0.1395 -0.1220 -0.2463
 6414SOL    HW120662   4.164   6.809   3.756 -1.0686 -0.2880 -0.1798
 6414SOL    HW220663   4.254   6.690   3.734 -1.2430 -0.9981  2.6070
 6415SOL     OW20664   0.005   2.012   0.825  0.3413  0.3866  0.0054
 6415SOL    HW120665   0.038   1.942   0.882  0.1135 -0.0664 -0.4125
 6415SOL    HW220666   0.081   2.040   0.775  0.4411  0.4621  0.1989
 6416SOL     OW20667   6.279   4.346   5.552 -0.0524  0.5305 -0.0413
 6416SOL    HW120668   6.364   4.340   5.509  0.5430  0.2849  1.1337
 6416SOL    HW220669   6.252   4.255   5.565 -0.7875  0.6066 -0.9471
 6417SOL     OW20670   2.836   4.438   2.800  0.4251  0.6260 -0.7379
 6417SOL    HW120671   2.742   4.451   2.791  0.3276 -1.1305 -3.3064
 6417SOL    HW220672   2.845   4.360   2.854  0.5037  1.6528  0.7841
 6418SOL     OW20673   2.536   7.300   5.248 -0.2204  0.2609  0.3611
 6418SOL    HW120674   2.458   7.352   5.229 -0.3577  0.7190  2.1009
 6418SOL    HW220675   2.547   7.306   5.342  1.4330 -0.5177  0.2469
 6419SOL     OW20676   0.427   4.705   3.517  0.4146  0.5434  0.1035
 6419SOL    HW120677   0.437   4.764   3.592 -0.0020  0.3089  0.3473
 6419SOL    HW220678   0.346   4.657   3.536  0.8597 -0.2513  0.0055
 6420SOL     OW20679   6.975   6.971   2.907  0.1854  0.2486 -0.2394
 6420SOL    HW120680   6.990   6.886   2.948  0.7627 -1.1750 -3.1581
 6420SOL    HW220681   7.063   7.008   2.896 -0.0042  0.8763  0.2390
 6421SOL     OW20682   6.346   1.957   3.973  0.2021  0.2144  0.4860
 6421SOL    HW120683   6.403   1.996   3.906 -1.4902  0.9021 -0.6393
 6421SOL    HW220684   6.290   2.030   4.000  1.3345  0.1470  3.2812
 6422SOL     OW20685   7.632   3.238   4.637 -0.0923  0.1798  0.6389
 6422SOL    HW120686   7.703   3.179   4.662 -0.5415  0.0875  1.7311
 6422SOL    HW220687   7.623   3.298   4.712 -1.9232 -0.5186  1.0254
 6423SOL     OW20688   2.769   2.368   1.529 -0.0595 -0.2096  0.0239
 6423SOL    HW120689   2.843   2.403   1.480 -0.3184 -1.4051 -1.2884
 6423SOL    HW220690   2.705   2.345   1.462 -1.7508  1.0260  1.1430
 6424SOL     OW20691   1.308   5.452   3.648  0.4783 -0.2307  0.3197
 6424SOL    HW120692   1.341   5.362   3.649 -0.0381 -0.4186  0.7076
 6424SOL    HW220693   1.296   5.472   3.555  1.7640 -0.1240  0.1581
 6425SOL     OW20694   6.555   2.935   4.436  0.4945 -1.1215  0.1290
 6425SOL    HW120695   6.600   3.019   4.447 -2.6698  0.7345  0.1956
 6425SOL    HW220696   6.581   2.904   4.350  2.0310 -0.2893  0.2655
 6426SOL     OW20697   3.316   6.525   2.249  0.2775  0.0528 -0.0857
 6426SOL    HW120698   3.290   6.523   2.341 -0.9977 -0.5211 -0.4352
 6426SOL    HW220699   3.333   6.617   2.231 -1.0909  0.4101  0.3151
 6427SOL     OW20700   4.108   3.274   2.562 -0.3878 -0.0327 -0.2184
 6427SOL    HW120701   4.063   3.351   2.598  1.8456  0.6151  1.4059
 6427SOL    HW220702   4.110   3.288   2.468 -0.9603  1.3566 -0.0372
 6428SOL     OW20703   6.974   6.002   6.542 -0.8693  0.5092  0.1414
 6428SOL    HW120704   6.919   5.945   6.489 -0.3323  0.3901 -0.2965
 6428SOL    HW220705   7.014   6.062   6.479 -0.7373  0.7943  0.4931
 6429SOL     OW20706   1.671   0.770   7.771  0.0041  0.1678  0.1688
 6429SOL    HW120707   1.598   0.715   7.799  1.2507 -0.9920  1.3034
 6429SOL    HW220708   1.658   0.783   7.677 -0.8576 -1.2367  0.0702
 6430SOL     OW20709   5.222   6.684   2.420  0.4018  0.4323  0.7766
 6430SOL    HW120710   5.294   6.701   2.360  1.1482 -2.1513  0.7986
 6430SOL    HW220711   5.152   6.649   2.364  0.3689 -0.1092  1.1486
 6431SOL     OW20712   7.597   2.993   6.375  0.3859 -0.7357  0.2890
 6431SOL    HW120713   7.657   2.997   6.450  1.6518  0.2723 -0.7325
 6431SOL    HW220714   7.526   3.053   6.399  0.3213 -1.1076  1.0564
 6432SOL     OW20715   3.031   0.703   6.791 -0.6475 -0.2442  0.0999
 6432SOL    HW120716   3.040   0.609   6.779 -1.7086 -0.4948  1.0341
 6432SOL    HW220717   3.016   0.738   6.703 -1.6592 -1.1384 -0.1070
 6433SOL     OW20718   0.479   5.587   6.542 -0.1924 -0.3895 -0.1440
 6433SOL    HW120719   0.425   5.624   6.473 -2.1524 -2.1485  0.3430
 6433SOL    HW220720   0.492   5.658   6.604 -0.1732  0.6218 -1.2623
 6434SOL     OW20721   7.771   1.554   4.424  0.5107 -0.0543  0.5467
 6434SOL    HW120722   7.829   1.616   4.468  2.4083 -1.4853  0.1901
 6434SOL    HW220723   7.746   1.491   4.492 -3.9445  2.5316  1.7585
 6435SOL     OW20724   6.665   5.945   7.169  0.5270 -0.3317  0.3408
 6435SOL    HW120725   6.691   5.865   7.213  2.0021  0.7477  1.5224
 6435SOL    HW220726   6.649   6.008   7.239  2.5942  1.3384 -0.5709
 6436SOL     OW20727   5.894   0.054   7.167 -0.2952 -0.4632  0.1569
 6436SOL    HW120728   5.838   0.066   7.244 -0.0589 -1.0239  0.4277
 6436SOL    HW220729   5.954  -0.017   7.193  0.0814 -0.3420 -0.3798
 6437SOL     OW20730   2.178   3.693   3.657  0.3914 -0.1865 -0.5509
 6437SOL    HW120731   2.112   3.629   3.630  0.2824 -0.6153  0.6905
 6437SOL    HW220732   2.249   3.640   3.694  0.6841  0.3666 -0.3170
 6438SOL     OW20733   3.617   6.516   1.955 -0.3545 -0.0913  0.5608
 6438SOL    HW120734   3.686   6.451   1.964  1.3904  1.8556  2.8386
 6438SOL    HW220735   3.608   6.531   1.861  0.5149 -2.1954  0.1032
 6439SOL     OW20736   6.363   7.885   1.080  0.3223  0.5033 -0.3174
 6439SOL    HW120737   6.270   7.864   1.070 -0.0137  1.8990 -0.3477
 6439SOL    HW220738   6.403   7.856   0.998  0.1625 -1.2407  0.1820
 6440SOL     OW20739   2.382   0.878   5.316  0.3010  0.1572 -0.2008
 6440SOL    HW120740   2.365   0.876   5.221  0.6402  1.2895 -0.2966
 6440SOL    HW220741   2.295   0.880   5.356  0.1258  1.8954 -0.5706
 6441SOL     OW20742   4.011   0.391   0.394  0.6111  0.1728  0.6559
 6441SOL    HW120743   4.045   0.306   0.367  0.7480  0.8330 -1.4453
 6441SOL    HW220744   4.061   0.454   0.342  0.6634  1.5732  2.3088
 6442SOL     OW20745   0.474   5.190   2.353  0.6646 -0.1955  0.1272
 6442SOL    HW120746   0.548   5.231   2.307  0.2700  0.2895 -0.0829
 6442SOL    HW220747   0.420   5.263   2.382 -0.1189 -0.5657 -0.3635
 6443SOL     OW20748   4.686   7.274   4.671 -0.5974  0.5406 -0.3098
 6443SOL    HW120749   4.710   7.212   4.602  0.8994  0.4940  0.2178
 6443SOL    HW220750   4.595   7.252   4.692 -0.5458 -0.5279 -1.1267
 6444SOL     OW20751   3.782   2.399   6.403 -0.0738 -0.4123  0.0418
 6444SOL    HW120752   3.689   2.387   6.382  0.2624  0.0363 -1.8973
 6444SOL    HW220753   3.790   2.492   6.424 -0.1505 -0.5650  0.7654
 6445SOL     OW20754   6.411   7.025   6.463 -0.7209  0.3389 -0.1429
 6445SOL    HW120755   6.402   7.038   6.558  0.4768 -0.2190  0.0619
 6445SOL    HW220756   6.320   7.023   6.431 -1.1273  1.8099  0.7911
 6446SOL     OW20757   3.898   2.233   5.119  0.6923  0.9284  0.0101
 6446SOL    HW120758   3.928   2.282   5.196  0.2395 -1.0101  1.5156
 6446SOL    HW220759   3.951   2.153   5.120  0.5168  0.7639 -1.5849
 6447SOL     OW20760   1.921   1.450   2.468 -0.4219 -0.5230 -0.2230
 6447SOL    HW120761   1.853   1.471   2.405 -1.5041 -3.6688 -0.2382
 6447SOL    HW220762   1.979   1.389   2.422  1.6204  0.9164  0.2928
 6448SOL     OW20763   3.437   5.559   4.873  0.0520  0.2515 -0.4822
 6448SOL    HW120764   3.421   5.618   4.947 -0.8383  0.8954 -1.1538
 6448SOL    HW220765   3.522   5.586   4.839  0.9169 -0.6780  0.8575
 6449SOL     OW20766   4.734   3.091   2.994  0.3577 -0.1143  0.1766
 6449SOL    HW120767   4.706   3.019   3.051 -0.3706  0.2155  0.2546
 6449SOL    HW220768   4.674   3.087   2.919 -0.7478  1.3502  0.9129
 6450SOL     OW20769   2.308   2.859   0.620  0.0760  0.6714  0.3000
 6450SOL    HW120770   2.351   2.846   0.536 -0.0337  3.1050 -0.1871
 6450SOL    HW220771   2.380   2.865   0.683  0.2230  0.1860  0.1805
 6451SOL     OW20772   7.865   6.568   3.782 -0.1301 -0.0073 -0.2452
 6451SOL    HW120773   7.924   6.597   3.712  1.2645 -0.7661  0.5537
 6451SOL    HW220774   7.786   6.539   3.736  0.5173  0.0533 -1.4550
 6452SOL     OW20775   7.699   7.218   7.508  0.2141  0.2237 -0.4354
 6452SOL    HW120776   7.788   7.248   7.524  0.7146 -0.7483 -1.2707
 6452SOL    HW220777   7.662   7.285   7.450  0.2061  0.9061  0.3389
 6453SOL     OW20778   6.604   0.127   3.064  0.2793 -0.6394 -0.1011
 6453SOL    HW120779   6.665   0.107   3.135 -3.1837 -0.3200  3.2388
 6453SOL    HW220780   6.615   0.054   3.003  1.3571 -2.5926  2.2458
 6454SOL     OW20781   0.015   3.540   7.162  0.4607  0.1539 -0.5476
 6454SOL    HW120782   0.086   3.527   7.099 -0.3400 -0.2090 -1.3975
 6454SOL    HW220783   0.031   3.627   7.198  0.9100  0.3896 -1.2938
 6455SOL     OW20784   3.008   4.744   2.349 -0.0941 -0.4605  0.1693
 6455SOL    HW120785   2.955   4.718   2.424  2.7046 -0.4689  2.2603
 6455SOL    HW220786   3.052   4.663   2.321  0.4065 -0.0603 -0.2222
 6456SOL     OW20787   1.734   2.912   2.398  0.1734 -0.5522  0.0149
 6456SOL    HW120788   1.723   2.898   2.492 -0.6832  0.1740  0.0257
 6456SOL    HW220789   1.668   2.977   2.375  3.6859  3.3763 -0.1098
 6457SOL     OW20790   4.049   6.303   4.320 -0.0418 -0.2112  0.1503
 6457SOL    HW120791   4.034   6.224   4.372 -2.1429  1.1876  1.8542
 6457SOL    HW220792   3.963   6.323   4.281  0.2991  1.4709  0.1706
 6458SOL     OW20793   5.333   4.753   7.153  0.0390 -0.3336 -0.0796
 6458SOL    HW120794   5.318   4.703   7.233 -0.1233 -0.2940 -0.0865
 6458SOL    HW220795   5.374   4.691   7.093  0.8608 -0.1646  0.2931
 6459SOL     OW20796   1.737   3.010   4.262 -0.3469  0.2215  0.6946
 6459SOL    HW120797   1.676   3.080   4.284 -1.7310 -1.1246  1.2816
 6459SOL    HW220798   1.700   2.932   4.303  1.2827 -0.8216  0.2644
 6460SOL     OW20799   7.645   1.200   3.598  0.2553  0.5829 -0.4605
 6460SOL    HW120800   7.606   1.283   3.570  2.7189  1.0831 -2.9455
 6460SOL    HW220801   7.710   1.225   3.663  0.7195  0.5884 -0.9173
 6461SOL     OW20802   4.802   6.868   0.819  0.2689 -0.1729  0.2762
 6461SOL    HW120803   4.843   6.933   0.763  0.5395 -0.1994  0.4408
 6461SOL    HW220804   4.709   6.869   0.795  0.2829  0.2339  0.2443
 6462SOL     OW20805   1.566   4.590   6.268  0.2045 -0.0634 -0.0126
 6462SOL    HW120806   1.491   4.604   6.209  0.2746  0.0464 -0.0759
 6462SOL    HW220807   1.643   4.596   6.211  0.2222 -1.1138 -0.1165
 6463SOL     OW20808   6.611   5.625   0.457 -0.1424  0.0133 -0.2282
 6463SOL    HW120809   6.636   5.666   0.374  0.2875  1.4684  0.5885
 6463SOL    HW220810   6.544   5.683   0.493 -0.0257 -0.3798  0.6444
 6464SOL     OW20811   2.636   4.075   3.673 -0.8074 -0.2533 -0.5908
 6464SOL    HW120812   2.663   4.145   3.614 -2.2845 -0.0415 -1.0636
 6464SOL    HW220813   2.694   4.084   3.749  1.1571 -0.5541 -1.9786
 6465SOL     OW20814   3.033   4.018   1.941  0.4125 -0.1385  0.2717
 6465SOL    HW120815   3.003   4.108   1.925 -0.0366 -0.1675  0.9250
 6465SOL    HW220816   3.081   3.995   1.861 -2.4435 -0.6072 -1.4673
 6466SOL     OW20817   0.363   5.558   4.207  0.1660  0.2400 -0.2952
 6466SOL    HW120818   0.411   5.640   4.206  0.5987  0.0613  1.6461
 6466SOL    HW220819   0.430   5.491   4.218 -0.3275 -0.2282 -0.0651
 6467SOL     OW20820   0.311   1.480   4.913 -0.3024  0.4529 -0.9899
 6467SOL    HW120821   0.305   1.423   4.836  1.4945 -0.1563 -0.7038
 6467SOL    HW220822   0.375   1.546   4.889 -0.0496  0.5133 -0.1624
 6468SOL     OW20823   7.033   4.959   3.816  0.3272  0.1180  0.3080
 6468SOL    HW120824   7.106   5.019   3.835  0.4307  0.0184  0.2162
 6468SOL    HW220825   7.044   4.888   3.879  0.8628 -0.3810 -0.3476
 6469SOL     OW20826   7.796   4.972   6.560 -0.1262  0.4720  0.4227
 6469SOL    HW120827   7.711   5.015   6.553  0.1489  1.1204  1.0132
 6469SOL    HW220828   7.791   4.900   6.497 -1.4564 -0.0903  1.1462
 6470SOL     OW20829   1.726   6.785   5.662 -0.1575 -0.0361 -0.4337
 6470SOL    HW120830   1.674   6.731   5.721 -0.7350  0.8562 -0.0940
 6470SOL    HW220831   1.669   6.859   5.641  0.8423  0.7848 -0.3495
 6471SOL     OW20832   7.157   3.089   3.086 -0.2777  0.0412  0.0876
 6471SOL    HW120833   7.162   3.077   3.180  1.0567  2.4938  0.4249
 6471SOL    HW220834   7.071   3.130   3.071  0.5113  2.0116  0.6376
 6472SOL     OW20835   0.844   1.657   4.980  0.6598  0.0319  0.2204
 6472SOL    HW120836   0.838   1.583   4.919 -1.8381  0.9799 -0.8275
 6472SOL    HW220837   0.794   1.630   5.056 -0.1333  0.5623 -0.1028
 6473SOL     OW20838   6.859   3.599   1.632  0.3968  0.0393  0.2453
 6473SOL    HW120839   6.853   3.510   1.597  2.8759  0.1581 -0.6986
 6473SOL    HW220840   6.941   3.599   1.682  0.4893  1.7993  0.1362
 6474SOL     OW20841   1.907   6.030   0.890  0.1095  0.1150 -0.5520
 6474SOL    HW120842   1.835   6.086   0.863 -1.0409 -1.0516 -0.0279
 6474SOL    HW220843   1.925   6.055   0.980  0.9298  0.9540 -0.9321
 6475SOL     OW20844   2.147   4.566   0.475  0.0979 -0.0141  0.3448
 6475SOL    HW120845   2.200   4.636   0.437  0.5593 -0.1642  0.7151
 6475SOL    HW220846   2.058   4.585   0.444  0.6564 -1.0102 -2.1677
 6476SOL     OW20847   1.681   2.276   4.929 -0.2417  0.1818 -0.9602
 6476SOL    HW120848   1.627   2.352   4.910 -0.8177  1.6551  4.6112
 6476SOL    HW220849   1.620   2.201   4.925 -1.0261  0.8293 -1.3238
 6477SOL     OW20850   3.282   3.416   5.924  0.4326  0.3469 -0.0253
 6477SOL    HW120851   3.353   3.469   5.960  0.7064 -0.2589  0.3348
 6477SOL    HW220852   3.202   3.460   5.954  0.6471 -0.3304  1.6319
 6478SOL     OW20853   2.341   2.140   3.863 -0.8888 -0.5394 -0.8253
 6478SOL    HW120854   2.259   2.134   3.912 -0.6445 -1.4338 -0.5178
 6478SOL    HW220855   2.341   2.230   3.829 -1.4420 -0.1639  0.1267
 6479SOL     OW20856   6.591   5.131   3.110  0.5603  0.0712  0.0533
 6479SOL    HW120857   6.547   5.153   3.192 -0.3875  0.8796 -0.6451
 6479SOL    HW220858   6.522   5.135   3.044  1.2477 -0.8424 -0.7537
 6480SOL     OW20859   2.489   0.789   1.422 -0.0615 -0.1721 -0.4085
 6480SOL    HW120860   2.482   0.708   1.371 -1.5326 -0.9451  0.9695
 6480SOL    HW220861   2.582   0.811   1.417  0.1953 -1.3598 -1.6737
 6481SOL     OW20862   7.930   5.808   3.692  0.0695  0.5492  0.0429
 6481SOL    HW120863   7.902   5.895   3.721 -2.8710 -0.0107 -0.7753
 6481SOL    HW220864   7.861   5.780   3.632  1.9422 -1.5746 -1.2703
 6482SOL     OW20865   0.223   7.492   2.343 -0.2550  0.1186 -0.6566
 6482SOL    HW120866   0.142   7.531   2.376  0.4224  0.5441  0.5398
 6482SOL    HW220867   0.291   7.524   2.402  0.6162 -1.2071 -0.9061
 6483SOL     OW20868   7.285   5.602   6.608  0.1786 -0.3532  0.4559
 6483SOL    HW120869   7.267   5.594   6.514 -0.2366  2.4626  0.2121
 6483SOL    HW220870   7.329   5.520   6.631 -1.6823 -2.0648 -1.6847
 6484SOL     OW20871   2.888   7.096   7.329  0.4002 -0.4506 -0.3519
 6484SOL    HW120872   2.838   7.158   7.383 -0.2993  0.1588 -1.6601
 6484SOL    HW220873   2.858   7.010   7.357  0.0709 -0.1524  0.2373
 6485SOL     OW20874   0.104   3.937   1.170  0.2469 -0.0890  0.6233
 6485SOL    HW120875   0.164   4.011   1.175  0.5427 -0.1641 -1.2663
 6485SOL    HW220876   0.091   3.922   1.077 -2.6378 -0.1523  0.9322
 6486SOL     OW20877   6.007   7.887   7.453 -0.0672 -0.0272  0.0444
 6486SOL    HW120878   5.942   7.865   7.520 -1.1375 -0.2542 -1.0152
 6486SOL    HW220879   6.088   7.848   7.483 -0.2805  0.6798  1.6660
 6487SOL     OW20880   1.411   6.457   6.010  0.3764  0.0495  0.4148
 6487SOL    HW120881   1.360   6.379   6.029  2.3051 -1.0781  1.3017
 6487SOL    HW220882   1.492   6.424   5.972  0.5188  1.7551 -0.8659
 6488SOL     OW20883   3.519   1.703   5.471  0.2368  0.1893 -0.0280
 6488SOL    HW120884   3.439   1.752   5.450  0.8403  0.9839 -0.5384
 6488SOL    HW220885   3.524   1.705   5.566 -1.0738 -1.0626  0.0941
 6489SOL     OW20886   4.719   5.298   2.713 -0.0091 -0.0005  0.1203
 6489SOL    HW120887   4.797   5.262   2.670 -0.6986 -1.0340 -0.2963
 6489SOL    HW220888   4.663   5.222   2.730 -0.1203  0.4898  2.1404
 6490SOL     OW20889   0.146   0.996   5.496  0.2673 -0.1369 -0.0415
 6490SOL    HW120890   0.224   0.981   5.442 -0.6528 -1.6658 -1.0255
 6490SOL    HW220891   0.179   1.041   5.574  1.7858  1.2452 -1.4200
 6491SOL     OW20892   6.947   4.860   5.847 -0.0216 -0.0049 -0.3336
 6491SOL    HW120893   7.029   4.907   5.835  0.0119 -0.0210 -0.1707
 6491SOL    HW220894   6.973   4.776   5.884 -0.1104 -0.0127 -0.2889
 6492SOL     OW20895   7.857   4.799   4.623 -0.7539  0.1727  0.4486
 6492SOL    HW120896   7.947   4.767   4.628  0.2108  2.0974 -2.3234
 6492SOL    HW220897   7.827   4.774   4.535 -1.4244  3.0233 -0.2437
 6493SOL     OW20898   1.828   6.577   3.625 -0.4016 -0.0005  0.5685
 6493SOL    HW120899   1.859   6.650   3.572 -1.1102 -0.7279 -0.8831
 6493SOL    HW220900   1.733   6.584   3.622 -0.4598 -0.2324  1.5187
 6494SOL     OW20901   0.316   7.943   5.384  0.4135 -0.0809  0.4830
 6494SOL    HW120902   0.263   7.961   5.307  0.0972  0.4760  0.8337
 6494SOL    HW220903   0.261   7.966   5.458  1.4337  1.3584  0.8406
 6495SOL     OW20904   4.919   7.869   0.050  0.0290 -0.2095 -0.0822
 6495SOL    HW120905   4.858   7.942   0.041 -0.1662 -0.4346 -0.6168
 6495SOL    HW220906   5.002   7.902   0.015  1.6207  1.6867  4.6299
 6496SOL     OW20907   7.218   6.060   7.858  0.0398  0.3481  0.9101
 6496SOL    HW120908   7.145   6.097   7.908  0.3066  0.9750  0.8490
 6496SOL    HW220909   7.257   6.136   7.814 -0.0509 -0.1616 -0.0729
 6497SOL     OW20910   1.664   1.847   5.451 -0.3404 -0.0677 -0.0927
 6497SOL    HW120911   1.594   1.904   5.484  1.1173  0.6615  1.9664
 6497SOL    HW220912   1.721   1.905   5.401  0.1523 -0.0919  0.4306
 6498SOL     OW20913   7.189   8.006   3.215  0.1508 -0.0039  0.2428
 6498SOL    HW120914   7.178   7.973   3.304 -2.3404  0.4771  0.1859
 6498SOL    HW220915   7.284   8.010   3.203  0.5643 -1.7167  2.2307
 6499SOL     OW20916   1.565   1.647   0.097  0.0790 -0.0019 -0.4848
 6499SOL    HW120917   1.498   1.715   0.108  0.8081  0.9337 -1.5684
 6499SOL    HW220918   1.517   1.564   0.104 -0.7945  0.6037  1.0714
 6500SOL     OW20919   2.180   0.671   3.455  0.0044 -0.0938  0.4235
 6500SOL    HW120920   2.201   0.579   3.438 -0.0996 -0.1936  0.8321
 6500SOL    HW220921   2.152   0.705   3.369 -0.3456 -0.5467  0.3526
 6501SOL     OW20922   4.281   6.639   0.118  0.2266 -0.0679  0.7008
 6501SOL    HW120923   4.358   6.673   0.072 -0.8811  2.5344  0.5857
 6501SOL    HW220924   4.207   6.659   0.060 -0.8061 -0.2081  1.9138
 6502SOL     OW20925   6.156   1.913   6.235  0.1214  0.1971 -0.0563
 6502SOL    HW120926   6.178   1.978   6.168  1.2355 -1.3635 -1.2806
 6502SOL    HW220927   6.069   1.882   6.210  0.1902  0.1997 -0.3024
 6503SOL     OW20928   3.347   6.576   3.329  0.3561  0.3032 -1.2293
 6503SOL    HW120929   3.352   6.657   3.279 -0.3309  1.1015 -0.0470
 6503SOL    HW220930   3.297   6.517   3.272 -0.3396  1.1600 -1.5389
 6504SOL     OW20931   3.545   6.037   6.989 -0.1632  0.3950  0.0170
 6504SOL    HW120932   3.516   5.984   6.915 -0.8587  2.8414 -1.5829
 6504SOL    HW220933   3.466   6.051   7.041 -0.3074  1.0060 -0.3528
 6505SOL     OW20934   4.500   0.979   6.465  0.2726 -0.2164  0.3982
 6505SOL    HW120935   4.456   1.052   6.420 -0.8800  0.5438  2.5975
 6505SOL    HW220936   4.593   0.995   6.450 -0.0135  0.7967 -0.4784
 6506SOL     OW20937   3.498   7.052   1.928  0.3128  0.0806 -0.4372
 6506SOL    HW120938   3.503   7.148   1.925 -4.0808  0.4962 -1.1567
 6506SOL    HW220939   3.453   7.033   2.010  0.6767 -1.3546 -0.5496
 6507SOL     OW20940   0.302   6.069   0.861 -0.4566 -0.2219 -0.0615
 6507SOL    HW120941   0.383   6.094   0.815 -0.9373  0.6380 -0.4813
 6507SOL    HW220942   0.306   6.117   0.944 -0.7888  0.2839 -0.3279
 6508SOL     OW20943   1.541   3.444   4.664  0.1583 -0.6142 -0.5315
 6508SOL    HW120944   1.616   3.416   4.716 -0.3022 -0.3797  0.2907
 6508SOL    HW220945   1.469   3.448   4.727 -0.7552 -1.6533 -1.4608
 6509SOL     OW20946   5.403   0.674   6.797  0.1905 -0.1647  0.0520
 6509SOL    HW120947   5.384   0.758   6.755  0.8322  0.5563  1.1653
 6509SOL    HW220948   5.391   0.690   6.890 -1.2060 -1.7379  0.1789
 6510SOL     OW20949   5.680   7.736   2.444  0.1309 -0.9493  0.1307
 6510SOL    HW120950   5.726   7.734   2.360  0.1137 -2.0641  0.1251
 6510SOL    HW220951   5.650   7.826   2.454 -0.0862 -0.8714 -1.1711
 6511SOL     OW20952   6.664   1.743   6.914  0.0882  0.7072 -0.4588
 6511SOL    HW120953   6.753   1.709   6.916 -0.1045  0.1299 -1.0259
 6511SOL    HW220954   6.657   1.788   6.830 -0.7297 -0.9717 -1.3602
 6512SOL     OW20955   6.987   7.256   2.850 -0.4384 -0.3670 -0.2478
 6512SOL    HW120956   7.060   7.271   2.910 -1.8244  0.4213  1.3422
 6512SOL    HW220957   6.922   7.209   2.903 -0.3836 -2.7841 -2.1621
 6513SOL     OW20958   0.069   1.826   1.015 -0.2329 -0.7547 -0.0210
 6513SOL    HW120959  -0.010   1.774   1.028 -0.8615  0.0394 -0.5691
 6513SOL    HW220960   0.086   1.866   1.101 -1.0509 -0.0794 -0.1642
 6514SOL     OW20961   1.514   1.504   2.039  0.3638 -0.0400 -0.3350
 6514SOL    HW120962   1.541   1.433   1.981 -0.5426 -0.8507  0.2109
 6514SOL    HW220963   1.470   1.567   1.982  2.4874  0.8713 -1.0923
 6515SOL     OW20964   0.375   7.336   1.954  0.2546 -0.4182  0.3018
 6515SOL    HW120965   0.380   7.247   1.920 -1.0024  0.1161 -1.4064
 6515SOL    HW220966   0.405   7.329   2.045 -0.2084 -2.6488  0.3344
 6516SOL     OW20967   5.168   3.712   1.939 -0.0637  0.5452 -0.0065
 6516SOL    HW120968   5.075   3.732   1.932 -0.2524 -0.5225 -0.8486
 6516SOL    HW220969   5.212   3.781   1.889 -0.3053  1.6216  1.2185
 6517SOL     OW20970   6.016   4.876   5.858  0.0209 -0.3241  0.2139
 6517SOL    HW120971   5.985   4.788   5.879 -0.8284 -0.1422 -0.2166
 6517SOL    HW220972   6.016   4.922   5.941 -0.0546 -0.5809  0.3560
 6518SOL     OW20973   3.600   6.859   7.452  0.0396 -0.4744  0.3486
 6518SOL    HW120974   3.583   6.766   7.464 -1.5410 -0.5482 -1.9628
 6518SOL    HW220975   3.520   6.903   7.482 -0.0871 -0.0273 -0.6199
 6519SOL     OW20976   3.843   6.630   2.530  0.5530 -0.5970  0.2203
 6519SOL    HW120977   3.895   6.690   2.477  0.5926 -0.5393  0.3243
 6519SOL    HW220978   3.775   6.599   2.471  2.2512 -2.7379 -0.7507
 6520SOL     OW20979   6.277   3.010   0.278  0.0626  0.7428  0.3265
 6520SOL    HW120980   6.288   3.035   0.186  1.3738  1.4198  0.6380
 6520SOL    HW220981   6.309   2.920   0.282  0.3967  0.8536  0.1909
 6521SOL     OW20982   2.210   2.975   3.621 -0.7447  0.7766  0.5627
 6521SOL    HW120983   2.235   3.037   3.552  1.2837  0.2954  0.8097
 6521SOL    HW220984   2.167   2.903   3.574  0.9564  0.2730 -0.2991
 6522SOL     OW20985   6.685   8.010   4.789  0.1146 -0.6460 -0.1715
 6522SOL    HW120986   6.693   7.939   4.726  3.8873 -0.0719 -0.5312
 6522SOL    HW220987   6.742   7.984   4.862 -0.3485  0.9289  0.7935
 6523SOL     OW20988   4.135   5.910   5.209 -0.1245 -0.0407  0.2208
 6523SOL    HW120989   4.193   5.933   5.282 -0.7294  0.5486  0.5252
 6523SOL    HW220990   4.050   5.947   5.233 -0.4753 -0.3500 -0.5132
 6524SOL     OW20991   0.810   2.507   6.714  0.4489 -0.2037 -0.0959
 6524SOL    HW120992   0.790   2.553   6.632  0.2100 -0.1302  0.0028
 6524SOL    HW220993   0.870   2.565   6.760  1.0130 -0.4917 -0.4580
 6525SOL     OW20994   3.639   6.190   0.849 -0.2187 -0.2881 -0.1310
 6525SOL    HW120995   3.732   6.207   0.836 -0.1104 -1.5194 -1.2091
 6525SOL    HW220996   3.635   6.097   0.872 -1.2965 -0.6931 -1.8051
 6526SOL     OW20997   7.986   3.975   1.748  0.3482  0.1819 -0.0451
 6526SOL    HW120998   7.961   4.044   1.686 -1.3759 -0.6998 -0.3859
 6526SOL    HW220999   8.081   3.984   1.756  0.3664  1.5790 -1.2920
 6527SOL     OW21000   2.397   0.053   1.630  0.2902 -0.8920  0.0078
 6527SOL    HW121001   2.399   0.072   1.724  0.0663 -0.4400 -0.0774
 6527SOL    HW221002   2.469   0.105   1.594 -1.1825  0.9897 -0.4307
 6528SOL     OW21003   0.664   0.532   3.675  0.2995  0.9509 -0.0723
 6528SOL    HW121004   0.581   0.540   3.628  1.1936 -2.0780 -2.5572
 6528SOL    HW221005   0.728   0.575   3.617  1.0802 -0.7219 -0.4980
 6529SOL     OW21006   7.844   6.869   4.249  0.1689 -0.1259 -0.3784
 6529SOL    HW121007   7.901   6.851   4.325 -1.4390 -0.1609  0.8621
 6529SOL    HW221008   7.766   6.817   4.265  0.5267 -1.6732 -3.0751
 6530SOL     OW21009   7.619   6.418   2.634 -0.0964 -0.4442  0.0903
 6530SOL    HW121010   7.544   6.374   2.594 -0.1310  0.3036 -0.7154
 6530SOL    HW221011   7.695   6.386   2.585 -0.0109 -0.3716  0.1750
 6531SOL     OW21012   1.050   2.598   7.577 -0.4317  0.6035  0.8022
 6531SOL    HW121013   1.028   2.627   7.665  0.0592  2.3924  0.3714
 6531SOL    HW221014   1.145   2.599   7.574 -0.4377  0.3417  0.3043
 6532SOL     OW21015   1.171   1.949   4.400 -0.1905 -0.4718  0.3368
 6532SOL    HW121016   1.174   1.885   4.472 -1.5891  1.7858  2.5958
 6532SOL    HW221017   1.078   1.958   4.380  0.0722  0.0443 -0.7077
 6533SOL     OW21018   4.024   1.133   4.314  0.6079  0.0855  0.3025
 6533SOL    HW121019   4.082   1.164   4.244  1.0404 -0.0872  0.5848
 6533SOL    HW221020   4.035   1.196   4.385  1.0860 -0.4126  0.6747
 6534SOL     OW21021   4.179   0.126   4.183 -0.1812  0.0069 -0.0571
 6534SOL    HW121022   4.226   0.208   4.168 -0.9604  0.0835 -2.4954
 6534SOL    HW221023   4.143   0.135   4.271  4.0351  0.0492  1.9548
 6535SOL     OW21024   5.911   3.059   2.087  0.4583  1.2511  0.0044
 6535SOL    HW121025   5.911   3.145   2.045 -3.3177  0.6109 -1.6654
 6535SOL    HW221026   5.898   2.997   2.015  1.1317 -0.5830  1.3920
 6536SOL     OW21027   2.628   3.157   2.078 -0.0973 -0.1820 -0.2297
 6536SOL    HW121028   2.643   3.067   2.105 -0.9096 -0.8177 -1.7627
 6536SOL    HW221029   2.545   3.181   2.119  0.6529  0.2787  1.0724
 6537SOL     OW21030   7.876   7.732   6.701 -0.3392  0.4469 -0.0213
 6537SOL    HW121031   7.961   7.696   6.676  0.2888  0.7244  1.5963
 6537SOL    HW221032   7.819   7.656   6.709  0.2127  0.0854  0.5289
 6538SOL     OW21033   1.439   0.474   6.527 -0.1869 -0.0952 -0.2678
 6538SOL    HW121034   1.527   0.465   6.489  0.1956 -1.8520  0.9053
 6538SOL    HW221035   1.454   0.512   6.613 -0.3675 -1.7930  0.5528
 6539SOL     OW21036   1.022   3.477   3.078 -0.0277  0.5969  0.0256
 6539SOL    HW121037   1.040   3.428   2.998  0.3596 -0.0714  0.5134
 6539SOL    HW221038   1.037   3.568   3.054  0.6399  0.3544 -0.5140
 6540SOL     OW21039   0.361   2.019   2.896 -0.3835 -0.2141 -0.6801
 6540SOL    HW121040   0.289   2.024   2.833 -0.2122  0.5962 -0.8277
 6540SOL    HW221041   0.333   1.953   2.960 -0.9590 -0.3851 -1.1021
 6541SOL     OW21042   3.374   7.648   3.130 -0.1297 -0.0658  0.4222
 6541SOL    HW121043   3.455   7.674   3.173 -1.3106 -0.2554  2.9488
 6541SOL    HW221044   3.393   7.561   3.094  0.7717 -0.0976  0.9500
 6542SOL     OW21045   7.294   6.814   0.655 -0.1807  0.2293 -0.2634
 6542SOL    HW121046   7.364   6.786   0.714  0.4340 -1.6095 -1.7593
 6542SOL    HW221047   7.321   6.901   0.625 -0.4927  1.1948  2.0449
 6543SOL     OW21048   0.888   1.856   3.976 -0.1428 -0.0697 -0.1215
 6543SOL    HW121049   0.983   1.850   3.981  0.1678  2.1251 -1.7767
 6543SOL    HW221050   0.860   1.879   4.064  1.0186  0.5041  0.1110
 6544SOL     OW21051   4.410   1.387   4.402 -0.1707  0.1886 -0.0280
 6544SOL    HW121052   4.321   1.408   4.430 -0.7823  1.3993 -2.5962
 6544SOL    HW221053   4.466   1.432   4.466 -1.3168 -1.0929  1.9779
 6545SOL     OW21054   6.996   1.250   3.540 -0.6865 -0.0672  0.3789
 6545SOL    HW121055   7.000   1.317   3.472 -2.0328  0.1163  0.4513
 6545SOL    HW221056   6.913   1.266   3.585 -0.8621 -1.5633  0.6362
 6546SOL     OW21057   3.352   4.050   2.878  0.2565  0.3084 -0.1253
 6546SOL    HW121058   3.407   4.128   2.881  0.7695 -0.0435 -0.2720
 6546SOL    HW221059   3.309   4.055   2.792  0.0795  0.5621 -0.0258
 6547SOL     OW21060   1.360   3.996   3.039  0.3295  0.3623 -0.2367
 6547SOL    HW121061   1.339   3.923   3.098  2.0361  2.3515  3.1753
 6547SOL    HW221062   1.453   3.987   3.021  0.6846  1.8518  0.6377
 6548SOL     OW21063   1.627   1.793   0.346 -0.3741 -0.2800  1.1224
 6548SOL    HW121064   1.604   1.744   0.267  1.0973 -1.0350  1.1327
 6548SOL    HW221065   1.716   1.825   0.329 -0.4423  0.4591  2.0569
 6549SOL     OW21066   6.971   4.209   4.091  0.5690  0.1142 -0.5137
 6549SOL    HW121067   6.891   4.249   4.125 -0.4032 -1.3449 -0.9535
 6549SOL    HW221068   6.950   4.116   4.084  2.3970 -0.3487 -0.4377
 6550SOL     OW21069   1.274   4.281   3.943 -0.1998  0.2028 -0.3038
 6550SOL    HW121070   1.281   4.370   3.978  0.2389 -0.8928  2.7860
 6550SOL    HW221071   1.215   4.237   4.005 -0.7497 -1.5674 -2.0050
 6551SOL     OW21072   6.950   3.264   7.769 -0.1338 -0.3951  0.0349
 6551SOL    HW121073   6.986   3.292   7.685  1.3673  0.5385  0.9561
 6551SOL    HW221074   7.024   3.266   7.829 -1.6232  1.2858  1.9425
 6552SOL     OW21075   4.709   3.955   1.874  0.2485 -0.2365 -0.2705
 6552SOL    HW121076   4.637   4.004   1.914  2.0522  3.6653 -1.3234
 6552SOL    HW221077   4.678   3.934   1.786 -0.1501  0.0757 -0.2061
 6553SOL     OW21078   5.624   0.873   5.504 -0.1405  0.6450  0.0896
 6553SOL    HW121079   5.669   0.856   5.421 -1.6308  0.8502 -0.7957
 6553SOL    HW221080   5.688   0.849   5.571  0.5594 -1.0233 -1.1041
 6554SOL     OW21081   4.239   4.662   7.021 -0.2457 -0.4370  0.2075
 6554SOL    HW121082   4.272   4.747   7.049 -1.2978 -0.6452  2.2450
 6554SOL    HW221083   4.316   4.604   7.027  1.0682  0.6943 -3.3577
 6555SOL     OW21084   3.915   0.079   6.647 -0.4608  0.9366  0.3086
 6555SOL    HW121085   3.935   0.075   6.740  0.9347 -0.4158 -0.0104
 6555SOL    HW221086   3.956   0.160   6.617 -0.6303  1.2098  0.8019
 6556SOL     OW21087   1.440   3.983   7.435 -0.2833 -0.5792  0.1424
 6556SOL    HW121088   1.414   4.061   7.387 -1.2086 -1.9232 -1.6745
 6556SOL    HW221089   1.531   3.968   7.409 -0.6464 -1.0550 -0.9256
 6557SOL     OW21090   4.028   6.492   3.056  0.2649 -0.2988  0.6297
 6557SOL    HW121091   4.049   6.399   3.070 -0.5442 -0.7333 -0.8168
 6557SOL    HW221092   4.080   6.538   3.122  2.6504 -1.5955 -0.2253
 6558SOL     OW21093   2.232   5.848   0.380  0.2716  0.0508  0.2463
 6558SOL    HW121094   2.268   5.932   0.348 -0.6606  0.5900  0.5742
 6558SOL    HW221095   2.160   5.874   0.438  0.3168 -0.9785  0.7704
 6559SOL     OW21096   7.025   1.843   0.904  0.3783 -0.6428  0.5609
 6559SOL    HW121097   7.014   1.930   0.865  1.3487  0.5810  2.7988
 6559SOL    HW221098   6.956   1.838   0.970 -0.5906 -2.2346 -0.5185
 6560SOL     OW21099   2.380   7.830   0.338  0.3967 -0.0938 -0.3656
 6560SOL    HW121100   2.385   7.776   0.417 -1.1530  1.3660  0.8112
 6560SOL    HW221101   2.404   7.771   0.267  1.5338 -1.5476  1.1367
 6561SOL     OW21102   7.836   2.367   5.507  0.3577 -0.4447  0.1027
 6561SOL    HW121103   7.889   2.382   5.585  1.1888  2.2962 -0.8722
 6561SOL    HW221104   7.755   2.416   5.523 -0.3232 -1.5270  0.0405
 6562SOL     OW21105   2.891   1.887   1.499  0.3409 -0.0612  0.2106
 6562SOL    HW121106   2.864   1.917   1.585  1.0119  0.5893  0.2048
 6562SOL    HW221107   2.810   1.885   1.448 -0.3718 -2.1769  1.3171
 6563SOL     OW21108   1.407   6.917   7.863  0.0398 -0.0783  0.0118
 6563SOL    HW121109   1.484   6.965   7.893 -0.0397  0.1502 -0.1405
 6563SOL    HW221110   1.366   6.884   7.943  0.4918 -0.5089  0.0693
 6564SOL     OW21111   5.444   3.970   4.342 -0.1664  0.1626 -0.0490
 6564SOL    HW121112   5.444   3.885   4.386  1.2700  0.8794  1.4771
 6564SOL    HW221113   5.353   3.999   4.345 -0.7449 -1.4928 -0.9792
 6565SOL     OW21114   3.200   7.551   7.255 -0.1408  0.0087  0.3675
 6565SOL    HW121115   3.233   7.633   7.219  1.3176 -0.8975 -0.4911
 6565SOL    HW221116   3.106   7.552   7.237 -0.0289  1.1899 -0.2086
 6566SOL     OW21117   2.882   1.962   3.748 -0.2035 -0.4200 -0.2690
 6566SOL    HW121118   2.958   1.908   3.725  0.9312  0.5001  1.1551
 6566SOL    HW221119   2.851   1.997   3.664  1.8232  0.3049 -0.7658
 6567SOL     OW21120   4.848   0.440   4.230 -0.5038  0.3920 -0.3016
 6567SOL    HW121121   4.874   0.363   4.179  0.0054  1.1441 -1.2140
 6567SOL    HW221122   4.860   0.413   4.321 -1.9607 -1.1748 -0.5121
 6568SOL     OW21123   0.993   1.996   5.784 -0.0702 -0.1753 -0.2032
 6568SOL    HW121124   0.971   2.018   5.874  0.0131  0.1758 -0.2673
 6568SOL    HW221125   0.970   1.903   5.776  0.3226 -0.3183  0.3006
 6569SOL     OW21126   7.943   0.301   1.911 -0.0024  0.4006 -0.4938
 6569SOL    HW121127   7.918   0.247   1.986  2.4007 -0.5518 -0.2838
 6569SOL    HW221128   7.989   0.241   1.852  0.1089  1.6096 -1.6920
 6570SOL     OW21129   7.356   2.785   4.180  0.5377  0.1579 -0.2692
 6570SOL    HW121130   7.421   2.819   4.241 -0.8559 -0.5551  1.7325
 6570SOL    HW221131   7.346   2.693   4.205 -1.3198  0.2881 -0.3599
 6571SOL     OW21132   6.895   6.989   4.593 -0.0807 -0.3676 -0.1679
 6571SOL    HW121133   6.876   6.903   4.556 -0.3205 -0.3303 -0.1363
 6571SOL    HW221134   6.974   6.976   4.645  1.0213 -0.1427 -1.7054
 6572SOL     OW21135   6.556   3.809   1.731 -0.0400  0.3966  0.1666
 6572SOL    HW121136   6.633   3.840   1.778 -0.8599  1.0095  1.1362
 6572SOL    HW221137   6.532   3.727   1.775 -0.7076  0.8820  0.7184
 6573SOL     OW21138   6.233   5.481   3.275  0.4418  0.4531 -0.0838
 6573SOL    HW121139   6.323   5.497   3.303  0.9622 -0.0891 -1.3432
 6573SOL    HW221140   6.179   5.513   3.347  1.6701 -0.8566  1.5208
 6574SOL     OW21141   2.867   2.246   4.978 -0.0858 -0.5184 -0.0792
 6574SOL    HW121142   2.853   2.165   5.028  1.2396 -0.8529 -0.2344
 6574SOL    HW221143   2.947   2.230   4.928  0.0851  0.8242 -0.2591
 6575SOL     OW21144   2.622   0.091   5.718  0.5297  0.4844  0.0729
 6575SOL    HW121145   2.702   0.043   5.694  0.2345 -0.6045  1.1571
 6575SOL    HW221146   2.653   0.170   5.760  1.0495  0.0644  0.4941
 6576SOL     OW21147   5.479   4.911   5.056  0.6691 -0.2787  0.2729
 6576SOL    HW121148   5.478   4.831   5.108  0.8116 -0.9560 -0.7450
 6576SOL    HW221149   5.547   4.897   4.990  0.3747  0.4896 -0.2116
 6577SOL     OW21150   6.530   1.303   2.729  1.2710 -0.1235 -0.0977
 6577SOL    HW121151   6.517   1.260   2.813  2.5314  0.2148  0.2919
 6577SOL    HW221152   6.509   1.237   2.663 -1.2409  0.0557  0.4346
 6578SOL     OW21153   0.453   2.240   3.152  0.8820 -0.5801  0.1364
 6578SOL    HW121154   0.475   2.219   3.243  1.1139 -0.4968  0.1002
 6578SOL    HW221155   0.468   2.158   3.105  1.9802 -0.2940 -0.0384
 6579SOL     OW21156   1.975   6.292   4.633 -0.1450  0.3227  0.1349
 6579SOL    HW121157   2.048   6.347   4.662 -1.7281  1.4235  2.3724
 6579SOL    HW221158   1.927   6.346   4.571  0.5259 -0.1490 -0.8218
 6580SOL     OW21159   6.519   2.568   1.135 -0.4035 -0.1242  0.0035
 6580SOL    HW121160   6.439   2.515   1.130 -1.6781  1.0604  3.8992
 6580SOL    HW221161   6.496   2.650   1.093 -0.0546 -0.8940 -1.7694
 6581SOL     OW21162   1.430   4.059   0.171 -0.1535  0.4911 -0.1458
 6581SOL    HW121163   1.462   4.000   0.102 -0.7996  0.7377 -0.6675
 6581SOL    HW221164   1.360   4.108   0.129 -2.4724 -1.2504  1.4456
 6582SOL     OW21165   5.005   6.329   6.024  0.5695  0.8558 -0.4044
 6582SOL    HW121166   4.953   6.271   5.968  2.8356 -1.0375 -0.6787
 6582SOL    HW221167   4.979   6.417   5.997 -1.1782  0.0054 -1.7397
 6583SOL     OW21168   6.336   0.305   4.699  0.3116 -0.6502 -0.0839
 6583SOL    HW121169   6.338   0.289   4.604 -0.5702  1.1730 -0.4499
 6583SOL    HW221170   6.420   0.272   4.730  1.0880 -0.2999 -1.6857
 6584SOL     OW21171   7.415   2.439   3.996 -0.2750  0.0326 -0.1538
 6584SOL    HW121172   7.446   2.359   4.038 -0.1925 -0.5256 -1.2614
 6584SOL    HW221173   7.403   2.501   4.069 -0.3619 -0.9826  0.7167
 6585SOL     OW21174   6.665   7.926   7.786 -0.4133 -0.9189 -0.2369
 6585SOL    HW121175   6.574   7.897   7.783 -0.6920 -0.1919  0.5496
 6585SOL    HW221176   6.659   8.017   7.815  0.6293 -1.2316  1.0524
 6586SOL     OW21177   1.717   0.137   6.480 -0.6975 -0.1246 -0.4925
 6586SOL    HW121178   1.763   0.087   6.412  0.2995 -2.5915  1.8076
 6586SOL    HW221179   1.787   0.182   6.528 -0.9329 -1.2597  0.9991
 6587SOL     OW21180   7.763   1.531   7.950 -0.3379  0.0475  0.2459
 6587SOL    HW121181   7.686   1.577   7.986  0.0381  2.6982 -2.0028
 6587SOL    HW221182   7.802   1.593   7.889  2.9456 -1.6769  0.3551
 6588SOL     OW21183   5.615   2.770   5.551  0.4632 -0.0753 -0.2605
 6588SOL    HW121184   5.558   2.750   5.477  0.1275  0.0678 -0.0400
 6588SOL    HW221185   5.561   2.823   5.609  0.7057 -0.2485  0.1224
 6589SOL     OW21186   2.063   5.319   0.100  0.6741  0.3352  0.1257
 6589SOL    HW121187   2.035   5.281   0.183  0.8040  0.7535  0.3634
 6589SOL    HW221188   1.981   5.342   0.056  0.5465  3.8261  1.8606
 6590SOL     OW21189   4.499   7.742   2.675 -0.2082 -0.2605  0.4710
 6590SOL    HW121190   4.542   7.805   2.617 -0.4655  1.3926  1.9633
 6590SOL    HW221191   4.406   7.764   2.668 -0.8021 -3.0366 -1.8538
 6591SOL     OW21192   4.931   0.189   2.303 -0.5125 -0.0551  0.3428
 6591SOL    HW121193   4.958   0.280   2.293 -1.0699  0.5696  3.4409
 6591SOL    HW221194   5.012   0.140   2.318 -0.4028  0.4547  1.5169
 6592SOL     OW21195   4.743   1.623   7.290 -0.0542 -0.5803  0.5017
 6592SOL    HW121196   4.835   1.632   7.315 -0.6963  1.3496  2.5505
 6592SOL    HW221197   4.702   1.577   7.364 -0.6553 -1.9317 -0.6393
 6593SOL     OW21198   6.353   6.948   4.395  0.2174 -0.0129  0.3635
 6593SOL    HW121199   6.371   7.004   4.471  2.2135 -0.8189  0.5413
 6593SOL    HW221200   6.435   6.948   4.345 -1.1404  0.7264 -1.9847
 6594SOL     OW21201   1.067   2.485   4.186  0.0311  0.3306 -0.0226
 6594SOL    HW121202   1.012   2.413   4.216  1.1290  0.1907  1.7608
 6594SOL    HW221203   1.156   2.451   4.190  0.4120  1.0970 -1.2734
 6595SOL     OW21204   4.885   7.359   4.825  0.5012  0.5627  0.1549
 6595SOL    HW121205   4.939   7.281   4.822 -1.0679 -0.5939  0.6043
 6595SOL    HW221206   4.829   7.353   4.747  0.2071  1.1168  0.3139
 6596SOL     OW21207   5.753   0.490   2.760 -0.4863  0.0528  0.0930
 6596SOL    HW121208   5.840   0.528   2.757 -1.0255  1.3254  0.1922
 6596SOL    HW221209   5.720   0.498   2.671 -0.3310 -0.8795 -0.0613
 6597SOL     OW21210   4.734   1.254   1.567 -0.0597  0.1104  0.0013
 6597SOL    HW121211   4.772   1.168   1.587  0.2805  0.3570  0.4274
 6597SOL    HW221212   4.766   1.311   1.637  0.5028  0.8066 -0.8075
 6598SOL     OW21213   2.886   4.988   5.921  0.3420 -0.2915 -0.4606
 6598SOL    HW121214   2.899   5.034   6.004 -0.1342  1.0165 -1.0874
 6598SOL    HW221215   2.948   5.029   5.860 -1.0511  0.5070 -1.3883
 6599SOL     OW21216   0.523   8.040   3.899 -0.2375  0.0498  0.4550
 6599SOL    HW121217   0.529   8.123   3.947  0.6357 -0.0602  0.5563
 6599SOL    HW221218   0.610   8.030   3.859 -0.2117 -0.9996  0.7534
 6600SOL     OW21219   6.720   6.769   4.878 -0.0440  0.2961 -0.3849
 6600SOL    HW121220   6.750   6.793   4.790 -1.4013 -0.9467 -1.2321
 6600SOL    HW221221   6.759   6.835   4.935  0.9769  1.0676 -1.8935
 6601SOL     OW21222   7.367   6.706   2.923 -0.2585  0.1108 -0.5159
 6601SOL    HW121223   7.435   6.655   2.966  0.4032  0.3326 -1.2889
 6601SOL    HW221224   7.400   6.722   2.835 -0.9379  0.9482 -0.6316
 6602SOL     OW21225   5.512   7.604   3.706 -0.2086 -0.2578  0.6844
 6602SOL    HW121226   5.489   7.666   3.637  1.7641 -1.2660 -0.9620
 6602SOL    HW221227   5.447   7.621   3.775 -0.5058  2.7442 -0.1919
 6603SOL     OW21228   3.675   7.876   7.618  0.4743 -0.4971  0.1744
 6603SOL    HW121229   3.742   7.821   7.658 -0.3223 -1.4127  0.2736
 6603SOL    HW221230   3.683   7.960   7.662 -0.0683 -1.3321  1.9325
 6604SOL     OW21231   7.559   7.394   2.747  0.0423 -0.2860  0.4670
 6604SOL    HW121232   7.516   7.401   2.662 -1.1740 -0.3491  1.0705
 6604SOL    HW221233   7.493   7.420   2.811 -0.1899 -3.4484  1.6813
 6605SOL     OW21234   6.985   1.239   1.774  0.4661  0.1489 -0.0684
 6605SOL    HW121235   7.029   1.282   1.700 -0.7194  2.0864  0.2938
 6605SOL    HW221236   6.894   1.231   1.747  0.5035 -1.5279  0.1941
 6606SOL     OW21237   0.521   4.139   1.358  0.1509  0.0655  0.1216
 6606SOL    HW121238   0.426   4.137   1.357  0.1195 -0.3263 -2.1628
 6606SOL    HW221239   0.544   4.226   1.325  0.5163 -0.6483 -1.6074
 6607SOL     OW21240   7.290   1.282   0.482  0.8960 -0.2946  0.2906
 6607SOL    HW121241   7.291   1.368   0.525  2.1087 -0.7595  1.2224
 6607SOL    HW221242   7.199   1.253   0.490  0.8756  0.0697  1.7056
 6608SOL     OW21243   7.129   3.828   1.620  0.3343 -0.6569  0.0676
 6608SOL    HW121244   7.184   3.814   1.697 -0.6308  3.0365  1.6869
 6608SOL    HW221245   7.075   3.750   1.613  1.6882 -1.8407  2.0541
 6609SOL     OW21246   4.194   3.892   6.986 -0.3562  0.3477  0.4519
 6609SOL    HW121247   4.231   3.811   6.950  0.4457  1.2115 -0.7333
 6609SOL    HW221248   4.246   3.962   6.948 -2.3374  1.5541 -0.2218
 6610SOL     OW21249   1.433   5.789   6.877 -0.0304 -0.0287  0.6654
 6610SOL    HW121250   1.365   5.851   6.850 -1.3946 -1.3858  0.8200
 6610SOL    HW221251   1.473   5.760   6.795  0.2201  0.6393  0.5539
 6611SOL     OW21252   7.170   7.819   2.949 -0.7638 -0.0894  0.1549
 6611SOL    HW121253   7.254   7.773   2.955 -0.5993  0.3353  1.5637
 6611SOL    HW221254   7.140   7.804   2.859 -0.2684 -2.1568  0.2766
 6612SOL     OW21255   1.243   6.620   0.324 -0.9529 -0.2773 -0.4083
 6612SOL    HW121256   1.224   6.697   0.270  0.4274 -0.1443 -0.7501
 6612SOL    HW221257   1.330   6.637   0.360 -0.8513 -1.4455 -0.0590
 6613SOL     OW21258   3.528   5.219   3.391  0.4433  0.3528 -0.3980
 6613SOL    HW121259   3.583   5.181   3.322  0.8748 -0.7762  0.5317
 6613SOL    HW221260   3.465   5.150   3.412 -1.7603  1.8093 -1.8154
 6614SOL     OW21261   0.815   3.684   3.346  0.6237 -0.1170 -0.1158
 6614SOL    HW121262   0.866   3.641   3.414 -2.0565 -0.4714  1.8531
 6614SOL    HW221263   0.774   3.758   3.390  0.3330  0.8346 -1.8880
 6615SOL     OW21264   6.303   2.789   3.874 -0.5675  0.4453  0.1442
 6615SOL    HW121265   6.252   2.710   3.856 -0.3817  0.1912  0.6761
 6615SOL    HW221266   6.322   2.783   3.968  1.7376 -0.2761 -0.3088
 6616SOL     OW21267   4.478   5.504   2.449  0.1585 -0.2606  0.1342
 6616SOL    HW121268   4.462   5.568   2.518  0.5938 -0.7679  0.7088
 6616SOL    HW221269   4.483   5.420   2.495 -0.6928 -0.7552 -0.6378
 6617SOL     OW21270   1.030   7.528   3.885  0.4139  0.1370 -0.4073
 6617SOL    HW121271   1.085   7.475   3.944 -0.4651  0.8219  1.0815
 6617SOL    HW221272   1.053   7.618   3.907 -0.6407  0.4118 -0.4093
 6618SOL     OW21273   7.291   2.061   4.350  0.5246  0.3260  0.1739
 6618SOL    HW121274   7.285   2.087   4.259 -0.9899  0.4097  0.2840
 6618SOL    HW221275   7.347   1.983   4.349  0.1800  0.0787 -0.8785
 6619SOL     OW21276   6.247   3.961   1.287 -0.0471  0.1657 -0.2919
 6619SOL    HW121277   6.268   3.875   1.251  0.2397  1.1793 -2.7147
 6619SOL    HW221278   6.166   3.947   1.336 -0.5342 -1.3066 -1.4329
 6620SOL     OW21279   0.487   4.783   5.971  0.3052  0.5477 -0.7058
 6620SOL    HW121280   0.556   4.732   6.014  0.4067  1.9091  0.8028
 6620SOL    HW221281   0.530   4.864   5.944 -0.3231  0.6932 -1.3058
 6621SOL     OW21282   5.966   3.058   3.865  0.0262 -0.3663  0.2503
 6621SOL    HW121283   6.005   2.998   3.800  0.5043 -0.3636  0.5294
 6621SOL    HW221284   6.035   3.121   3.883 -0.7331  0.7530 -0.6192
 6622SOL     OW21285   4.047   5.407   0.224  0.4899  0.0555  0.0194
 6622SOL    HW121286   3.976   5.450   0.273  0.9317  1.6723 -0.6792
 6622SOL    HW221287   4.063   5.325   0.272 -0.9834  0.2457  0.9174
 6623SOL     OW21288   2.588   6.642   0.991 -0.2265  1.0578  0.2038
 6623SOL    HW121289   2.554   6.721   0.947 -0.1112  1.1244  0.2323
 6623SOL    HW221290   2.521   6.575   0.976  0.2519  0.8088 -0.9020
 6624SOL     OW21291   6.152   5.668   2.253  0.2385  0.5425 -0.2764
 6624SOL    HW121292   6.126   5.713   2.334 -0.1146  1.3487 -0.8258
 6624SOL    HW221293   6.231   5.620   2.277 -0.6772 -0.4135  0.9331
 6625SOL     OW21294   7.988   2.720   5.653 -0.3837  0.1558 -0.5455
 6625SOL    HW121295   8.082   2.733   5.644 -0.6873  2.3936 -1.0494
 6625SOL    HW221296   7.963   2.774   5.728 -1.2405 -0.6830 -0.1968
 6626SOL     OW21297   4.146   5.547   3.945  0.0420  0.7835  0.1494
 6626SOL    HW121298   4.083   5.604   3.901 -0.6012  0.0958  0.1582
 6626SOL    HW221299   4.124   5.459   3.914 -1.5133  0.0426  2.9882
 6627SOL     OW21300   8.048   1.334   6.390 -0.0807  0.0885 -0.6876
 6627SOL    HW121301   7.968   1.307   6.435  0.7662 -1.9157 -0.2780
 6627SOL    HW221302   8.023   1.341   6.298 -1.0298  0.8654 -0.3866
 6628SOL     OW21303   4.451   5.231   3.652 -0.3417 -0.0563 -0.1270
 6628SOL    HW121304   4.420   5.314   3.690  0.0824  0.9302 -1.8113
 6628SOL    HW221305   4.510   5.258   3.581  2.0335 -1.8493  1.0260
 6629SOL     OW21306   6.346   1.216   0.662  0.2156 -0.1887 -0.4888
 6629SOL    HW121307   6.346   1.121   0.679  0.3944  0.0092  0.6547
 6629SOL    HW221308   6.331   1.256   0.748 -1.0412  0.8007 -1.1282
 6630SOL     OW21309   1.601   5.314   4.641 -0.0691  0.2554  0.2075
 6630SOL    HW121310   1.585   5.247   4.707 -4.2532  0.8455  0.0540
 6630SOL    HW221311   1.643   5.267   4.569 -0.1015 -1.5275  1.2935
 6631SOL     OW21312   2.494   6.211   0.302  0.4507  0.2182  0.1483
 6631SOL    HW121313   2.564   6.271   0.331  1.8409 -1.4369  0.3754
 6631SOL    HW221314   2.442   6.195   0.381  0.9448  0.0125  0.4368
 6632SOL     OW21315   3.683   7.035   4.951 -0.3207 -0.0785  0.1004
 6632SOL    HW121316   3.613   7.094   4.979 -1.4594 -1.2665 -0.1542
 6632SOL    HW221317   3.637   6.960   4.912  1.1181 -0.3871 -1.1011
 6633SOL     OW21318   3.629   4.231   0.411  0.3016  0.4251 -0.3027
 6633SOL    HW121319   3.657   4.240   0.502 -1.2203  2.5807  0.0240
 6633SOL    HW221320   3.709   4.205   0.364  1.6691  1.5080  1.2954
 6634SOL     OW21321   1.234   6.318   6.605  0.2990  0.3065 -0.4233
 6634SOL    HW121322   1.197   6.309   6.693 -1.0140 -1.4351 -1.1012
 6634SOL    HW221323   1.319   6.360   6.620  0.8467 -1.3981  1.8514
 6635SOL     OW21324   4.951   1.849   4.328 -0.1765  0.4654  0.3688
 6635SOL    HW121325   5.039   1.885   4.320 -0.0489 -0.2243 -3.0530
 6635SOL    HW221326   4.963   1.754   4.323 -1.0441  0.2562  1.5823
 6636SOL     OW21327   1.186   0.779   2.436 -0.2921 -0.3474  0.4780
 6636SOL    HW121328   1.208   0.712   2.501 -1.1629 -1.6343 -0.5017
 6636SOL    HW221329   1.266   0.789   2.384  0.2264  0.2804  1.3648
 6637SOL     OW21330   5.468   5.984   3.342  0.1523  0.0880  0.1875
 6637SOL    HW121331   5.473   5.993   3.247 -0.9563 -0.1946  0.0797
 6637SOL    HW221332   5.549   6.021   3.375  0.1970  0.9140 -0.8207
 6638SOL     OW21333   7.352   3.168   0.647 -0.7282 -0.6058  0.3433
 6638SOL    HW121334   7.369   3.084   0.605  2.7281 -0.7170  1.6914
 6638SOL    HW221335   7.308   3.220   0.579  1.4616 -1.9238 -2.2674
 6639SOL     OW21336   4.999   2.192   0.793  0.3370 -0.3626 -0.4247
 6639SOL    HW121337   4.996   2.243   0.712  1.4622  3.6012  1.7195
 6639SOL    HW221338   5.091   2.166   0.802  0.2621 -0.6009 -0.3395
 6640SOL     OW21339   4.139   7.585   0.088 -0.4168  0.2415 -0.1221
 6640SOL    HW121340   4.130   7.542   0.003 -1.4479 -0.7614  0.4525
 6640SOL    HW221341   4.055   7.568   0.131 -0.1890  1.3767  0.8045
 6641SOL     OW21342   4.437   6.656   3.800 -0.4688  0.4691  0.6386
 6641SOL    HW121343   4.493   6.580   3.781 -0.1655 -0.5290  4.6029
 6641SOL    HW221344   4.499   6.725   3.824 -0.8509  0.7578  0.7926
 6642SOL     OW21345   3.590   0.336   4.866 -0.1695  0.4466  0.1689
 6642SOL    HW121346   3.629   0.308   4.783 -3.3619  0.2182 -1.4125
 6642SOL    HW221347   3.561   0.255   4.908 -0.3647  0.6978  0.5294
 6643SOL     OW21348   0.304   5.971   1.807  0.3982  0.3159  0.2928
 6643SOL    HW121349   0.366   6.042   1.793  2.5335 -1.4224  0.2856
 6643SOL    HW221350   0.234   6.009   1.859  0.6172  2.7905 -1.0828
 6644SOL     OW21351   1.523   1.221   7.981 -0.8503 -0.6861 -0.3985
 6644SOL    HW121352   1.476   1.301   8.003 -0.1255  0.1046 -1.6582
 6644SOL    HW221353   1.562   1.193   8.064 -1.1981  0.1978  0.0791
 6645SOL     OW21354   7.467   6.855   3.945 -0.4855  0.3073  0.1841
 6645SOL    HW121355   7.406   6.784   3.962 -0.7635  0.0284 -1.7614
 6645SOL    HW221356   7.551   6.824   3.980 -0.5859 -1.0234 -0.6871
 6646SOL     OW21357   5.095   6.855   5.572 -0.3030  0.0413 -0.4921
 6646SOL    HW121358   5.080   6.803   5.493 -0.5501 -1.6457  0.6224
 6646SOL    HW221359   5.011   6.853   5.618  0.0718  0.3311  0.2131
 6647SOL     OW21360   7.437   6.364   4.536 -0.3138 -0.4556  0.2326
 6647SOL    HW121361   7.346   6.378   4.507  0.0617 -0.9298 -1.2847
 6647SOL    HW221362   7.457   6.443   4.587 -0.3528  1.6522 -2.7022
 6648SOL     OW21363   1.051   4.828   5.895 -0.7951 -0.2762  0.0983
 6648SOL    HW121364   1.027   4.829   5.802 -0.3470 -2.8288 -0.1102
 6648SOL    HW221365   1.038   4.738   5.922 -1.4889  0.5347  2.7231
 6649SOL     OW21366   3.992   1.292   7.727 -0.7072  0.5808 -0.2574
 6649SOL    HW121367   4.061   1.230   7.750 -1.5404  0.1776  1.2580
 6649SOL    HW221368   3.978   1.278   7.633 -0.4157 -1.0458 -0.0915
 6650SOL     OW21369   1.147   2.527   1.801  0.2960  0.3839 -0.3349
 6650SOL    HW121370   1.218   2.502   1.860  0.0841 -0.7814 -0.5449
 6650SOL    HW221371   1.158   2.470   1.725  0.2653  1.5246 -1.2128
 6651SOL     OW21372   2.932   0.657   0.674 -0.2091 -0.3542 -0.4417
 6651SOL    HW121373   2.900   0.581   0.723 -2.1423 -0.0603 -1.1836
 6651SOL    HW221374   2.855   0.713   0.663 -0.0538 -0.6468 -4.2707
 6652SOL     OW21375   7.173   3.339   0.507 -0.0995  0.5834  0.6997
 6652SOL    HW121376   7.081   3.333   0.478  0.7927  0.2161 -2.4593
 6652SOL    HW221377   7.201   3.425   0.477  1.4646 -0.6256 -1.5750
 6653SOL     OW21378   3.260   1.770   7.654 -0.1258  1.1560 -0.1138
 6653SOL    HW121379   3.333   1.737   7.707  0.6131  2.0762 -0.5367
 6653SOL    HW221380   3.256   1.863   7.674 -1.8179  0.9721  0.6306
 6654SOL     OW21381   7.796   4.670   6.772 -0.1077 -0.3180 -0.3719
 6654SOL    HW121382   7.721   4.729   6.781  0.9553  1.3947 -2.2035
 6654SOL    HW221383   7.813   4.666   6.678  1.1681 -1.9280 -0.1250
 6655SOL     OW21384   6.726   1.539   5.727  0.5491 -0.7979  0.1497
 6655SOL    HW121385   6.764   1.513   5.643  0.4882  2.6418 -1.1203
 6655SOL    HW221386   6.670   1.613   5.705 -1.0967 -1.0651  3.0190
 6656SOL     OW21387   2.747   4.502   3.356  0.0324  0.1605  0.2204
 6656SOL    HW121388   2.834   4.510   3.318 -0.8923  0.1062 -2.0568
 6656SOL    HW221389   2.713   4.419   3.322 -0.9226  0.2026  1.0290
 6657SOL     OW21390   4.318   1.418   1.609  0.4952 -0.0191  0.5770
 6657SOL    HW121391   4.310   1.490   1.672 -2.4669 -1.7283  2.4098
 6657SOL    HW221392   4.273   1.450   1.531  1.3321  0.9409  0.4619
 6658SOL     OW21393   3.959   3.981   7.104 -0.3914 -0.4289 -0.0916
 6658SOL    HW121394   4.034   3.940   7.061  1.2892  0.8861  1.4541
 6658SOL    HW221395   3.956   3.941   7.191 -1.7769 -0.7540 -0.2614
 6659SOL     OW21396   2.991   6.234   7.449  0.0328 -0.1349 -0.3304
 6659SOL    HW121397   3.031   6.153   7.482 -1.2236 -1.0246 -0.8862
 6659SOL    HW221398   2.955   6.277   7.526  2.2353  0.8490  0.2339
 6660SOL     OW21399   0.288   2.468   4.848 -0.4445 -0.0979 -0.4487
 6660SOL    HW121400   0.291   2.553   4.804  1.2323  0.0146 -0.1907
 6660SOL    HW221401   0.348   2.413   4.799 -0.9045 -0.9122 -0.1279
 6661SOL     OW21402   5.815   7.898   5.642 -0.1797  0.2234 -0.1133
 6661SOL    HW121403   5.775   7.982   5.620 -1.9614 -0.6582 -0.3768
 6661SOL    HW221404   5.787   7.838   5.573 -0.7262 -1.0917  1.1835
 6662SOL     OW21405   1.454   0.622   4.598  0.0942 -0.2110  0.6304
 6662SOL    HW121406   1.532   0.576   4.631 -0.6610 -1.2039  1.0819
 6662SOL    HW221407   1.426   0.678   4.670 -1.3828 -2.1611  1.6703
 6663SOL     OW21408   0.345   1.974   2.061  0.4042  0.3244 -0.0074
 6663SOL    HW121409   0.285   2.047   2.076  0.6838  0.5172  0.1875
 6663SOL    HW221410   0.431   2.009   2.084  0.7408  0.3593 -1.2521
 6664SOL     OW21411   1.794   6.603   6.744 -0.6357 -0.3424  0.2236
 6664SOL    HW121412   1.867   6.654   6.778 -0.7896 -0.3343  0.5518
 6664SOL    HW221413   1.719   6.662   6.751 -0.9478 -0.8271  1.2512
 6665SOL     OW21414   1.338   5.533   4.556 -0.0963 -0.4858 -0.3678
 6665SOL    HW121415   1.297   5.455   4.594 -0.8095  1.0262  2.2433
 6665SOL    HW221416   1.267   5.596   4.548  0.9795  0.9034  0.5106
 6666SOL     OW21417   6.212   8.001   6.623 -0.2283  0.4692 -0.6519
 6666SOL    HW121418   6.119   8.021   6.619 -0.1010  1.5739  0.8146
 6666SOL    HW221419   6.233   8.003   6.716  1.1077 -0.5823 -0.8934
 6667SOL     OW21420   6.395   5.592   6.182  0.5107  0.3133 -0.4830
 6667SOL    HW121421   6.366   5.640   6.260 -0.2705  2.1538 -1.8038
 6667SOL    HW221422   6.458   5.529   6.214 -0.8473  0.0101  1.8186
 6668SOL     OW21423   2.192   3.958   0.403  0.5259 -0.2350 -0.3347
 6668SOL    HW121424   2.199   4.001   0.489  0.9343  0.4004 -0.6785
 6668SOL    HW221425   2.101   3.931   0.397  0.4246 -0.0214  0.1764
 6669SOL     OW21426   4.489   0.481   4.785  0.0952 -0.1965 -0.2963
 6669SOL    HW121427   4.428   0.455   4.716 -0.1136  0.7068 -0.4623
 6669SOL    HW221428   4.484   0.576   4.787  1.8833 -0.0581 -0.6629
 6670SOL     OW21429   3.246   6.294   0.522  0.2426  0.5316 -0.3309
 6670SOL    HW121430   3.223   6.351   0.595  2.2654 -0.1928  0.9646
 6670SOL    HW221431   3.213   6.208   0.547  1.5960  0.1205  0.1472
 6671SOL     OW21432   2.912   3.161   7.934 -0.0733 -0.9633 -0.4037
 6671SOL    HW121433   2.987   3.151   7.877  1.0712 -1.1068  1.0619
 6671SOL    HW221434   2.853   3.090   7.910  0.9707 -1.8060 -0.5418
 6672SOL     OW21435   6.242   8.053   6.896  0.7850 -0.4677  0.2523
 6672SOL    HW121436   6.324   8.087   6.931  1.8281 -2.0659 -0.4774
 6672SOL    HW221437   6.219   7.982   6.955  0.3973 -0.5711 -0.0211
 6673SOL     OW21438   1.575   2.920   2.024  0.3247  0.3112  0.0724
 6673SOL    HW121439   1.561   2.907   1.931 -1.1222  0.8839  0.1713
 6673SOL    HW221440   1.668   2.939   2.033  0.7188 -0.9551 -1.0931
 6674SOL     OW21441   1.543   3.127   3.914  0.5428  0.1200  0.0439
 6674SOL    HW121442   1.466   3.072   3.928  0.7031  0.0476  0.6474
 6674SOL    HW221443   1.576   3.146   4.002  2.0817 -1.0920 -0.2157
 6675SOL     OW21444   5.391   1.894   7.511  0.2947 -0.3305 -0.4306
 6675SOL    HW121445   5.320   1.956   7.495  1.5878  1.4233  0.3592
 6675SOL    HW221446   5.398   1.889   7.606  1.1217 -0.6065 -0.4948
 6676SOL     OW21447   1.788   4.523   6.119 -0.5135  0.0338 -0.0500
 6676SOL    HW121448   1.783   4.467   6.041  0.8412  1.6468 -1.3525
 6676SOL    HW221449   1.877   4.511   6.151 -0.3892  1.0187 -0.0152
 6677SOL     OW21450   7.150   0.644   0.076 -0.4751 -0.1060  0.3529
 6677SOL    HW121451   7.153   0.578   0.145  0.6377 -1.0019 -0.4913
 6677SOL    HW221452   7.191   0.721   0.114  1.6446 -1.0985  0.2500
 6678SOL     OW21453   4.564   6.824   2.679  0.3222 -0.4933 -0.0195
 6678SOL    HW121454   4.594   6.832   2.770 -0.3214 -1.7589  0.3258
 6678SOL    HW221455   4.642   6.795   2.631  0.7564  0.5231  0.0495
 6679SOL     OW21456   7.568   2.822   7.048 -0.0853 -0.2392  0.4215
 6679SOL    HW121457   7.549   2.811   7.141  2.1432  0.5636  1.0484
 6679SOL    HW221458   7.564   2.916   7.033 -1.2432 -0.4137 -0.5274
 6680SOL     OW21459   4.414   4.173   3.034 -0.1606 -0.0748  0.1206
 6680SOL    HW121460   4.416   4.218   2.949  0.7803 -0.6474 -0.1731
 6680SOL    HW221461   4.359   4.097   3.019 -0.6414  0.2458  0.2446
 6681SOL     OW21462   0.889   5.289   7.757 -0.3518 -0.4996  0.2088
 6681SOL    HW121463   0.794   5.284   7.762 -0.2291 -2.2906  1.7302
 6681SOL    HW221464   0.920   5.258   7.842  1.5904  3.4878  1.2352
 6682SOL     OW21465   1.739   2.967   4.623  0.1156  0.5737  0.3428
 6682SOL    HW121466   1.680   2.950   4.696 -0.1633 -1.7267 -0.3262
 6682SOL    HW221467   1.704   2.914   4.551  1.3022  1.4990 -0.9767
 6683SOL     OW21468   2.488   0.017   1.127 -0.3667 -0.3931 -0.1716
 6683SOL    HW121469   2.522  -0.072   1.120  0.5190 -0.2500  1.6231
 6683SOL    HW221470   2.561   0.073   1.099 -0.8623 -0.2183 -1.1370
 6684SOL     OW21471   4.339   3.165   2.677  0.4890  0.4775  0.0872
 6684SOL    HW121472   4.286   3.086   2.679 -0.0180  0.7952  2.2635
 6684SOL    HW221473   4.275   3.237   2.673  0.7273  0.8419  1.9721
 6685SOL     OW21474   4.496   1.644   5.973  0.5950  0.0552  0.0051
 6685SOL    HW121475   4.491   1.642   5.878 -0.5948 -1.2663  0.0722
 6685SOL    HW221476   4.405   1.637   6.003  0.9485  0.4135  1.2471
 6686SOL     OW21477   3.742   5.059   0.445 -0.2693  0.0352 -0.0208
 6686SOL    HW121478   3.723   4.967   0.430  0.5289 -0.0827 -0.3297
 6686SOL    HW221479   3.737   5.070   0.540 -0.1163 -0.3812  0.0358
 6687SOL     OW21480   1.827   3.377   4.068 -0.1922  0.6050 -0.5503
 6687SOL    HW121481   1.826   3.462   4.114 -0.2122 -0.8382  2.3845
 6687SOL    HW221482   1.744   3.336   4.094 -0.1584 -0.3403 -1.8942
 6688SOL     OW21483   4.799   5.784   4.430  0.2642 -0.1687  0.2889
 6688SOL    HW121484   4.734   5.847   4.400  1.2650  1.0379  0.5532
 6688SOL    HW221485   4.791   5.785   4.525 -1.9446 -2.9462  0.2522
 6689SOL     OW21486   0.692   4.574   3.944 -0.0393 -0.2161  0.1039
 6689SOL    HW121487   0.725   4.527   4.020 -0.3145  1.6785  1.4917
 6689SOL    HW221488   0.770   4.593   3.892  0.0698 -2.1281 -0.5054
 6690SOL     OW21489   4.324   2.627   4.937  0.0277  0.2679  0.1151
 6690SOL    HW121490   4.360   2.696   4.993 -0.2382 -0.6522  1.4811
 6690SOL    HW221491   4.231   2.625   4.960 -0.1168 -0.0340 -0.4845
 6691SOL     OW21492   7.884   5.174   0.944  0.1673 -0.0042 -0.7665
 6691SOL    HW121493   7.870   5.210   1.032  0.9158 -1.3060 -0.0863
 6691SOL    HW221494   7.810   5.208   0.893 -1.5291 -0.9828  0.9044
 6692SOL     OW21495   1.692   4.516   1.985 -0.0432  0.8115  0.4416
 6692SOL    HW121496   1.700   4.549   2.074  1.4708 -0.2831  0.7534
 6692SOL    HW221497   1.709   4.422   1.992 -0.6176  0.5734 -0.9073
 6693SOL     OW21498   0.292   6.642   4.010  0.5224 -0.8951 -0.2158
 6693SOL    HW121499   0.200   6.619   4.009  0.4644 -0.6800  0.0902
 6693SOL    HW221500   0.328   6.603   3.930 -0.1399  0.2389 -1.1104
 6694SOL     OW21501   0.923   3.108   5.671 -0.3756  0.7709  0.1580
 6694SOL    HW121502   0.846   3.116   5.615  1.1793 -0.1499 -2.2988
 6694SOL    HW221503   0.893   3.055   5.745 -1.9815 -0.0862 -1.0348
 6695SOL     OW21504   0.111   5.422   5.246 -0.3512 -0.7725 -0.2271
 6695SOL    HW121505   0.050   5.389   5.181 -0.7077 -1.2546  0.3316
 6695SOL    HW221506   0.197   5.396   5.214 -0.4166  0.0341 -1.0883
 6696SOL     OW21507   0.903   2.690   1.109 -0.4674  0.3089  0.2929
 6696SOL    HW121508   0.883   2.606   1.069  3.0486 -1.0615  1.0060
 6696SOL    HW221509   0.861   2.687   1.195  0.7265 -1.4049  0.8652
 6697SOL     OW21510   4.015   1.487   4.861 -0.5894 -0.7269  0.0687
 6697SOL    HW121511   4.025   1.392   4.858  0.2899 -0.6141 -1.9369
 6697SOL    HW221512   4.045   1.512   4.948 -1.8774 -2.3676  1.0322
 6698SOL     OW21513   0.140   6.466   5.949 -0.2135 -0.3338 -0.6788
 6698SOL    HW121514   0.159   6.404   5.879 -1.4943  0.1626 -1.4952
 6698SOL    HW221515   0.051   6.444   5.977  0.6538 -1.2284  1.5601
 6699SOL     OW21516   4.838   2.714   4.512 -0.4160 -0.5428 -0.2226
 6699SOL    HW121517   4.816   2.798   4.472  0.5702  0.2385  0.7974
 6699SOL    HW221518   4.781   2.707   4.588 -0.7877 -1.0043 -0.5388
 6700SOL     OW21519   7.906   3.511   1.146  0.0942 -0.3153  0.0280
 6700SOL    HW121520   7.821   3.486   1.109 -0.6548  1.6959  0.2288
 6700SOL    HW221521   7.901   3.482   1.237 -0.0836 -0.8231 -0.1373
 6701SOL     OW21522   4.507   1.983   7.678 -0.4132 -0.1948  0.2027
 6701SOL    HW121523   4.488   1.890   7.662 -0.3795 -0.0728 -0.5857
 6701SOL    HW221524   4.600   1.986   7.698 -0.9393 -0.6770  3.1166
 6702SOL     OW21525   2.021   3.027   4.367  0.1220 -0.5131  0.0673
 6702SOL    HW121526   1.974   3.065   4.441  0.3080 -0.8062  0.3400
 6702SOL    HW221527   2.077   3.098   4.336  0.4111 -0.5306  0.5243
 6703SOL     OW21528   0.983   6.005   2.597 -0.1080 -0.2360 -0.8299
 6703SOL    HW121529   1.030   6.082   2.564  0.1325 -0.0626 -0.1152
 6703SOL    HW221530   1.053   5.944   2.623 -0.2887 -0.3328 -0.5735
 6704SOL     OW21531   0.572   3.138   6.081  0.1746 -0.1915 -0.0654
 6704SOL    HW121532   0.567   3.101   5.993  3.1909  1.4081 -1.0478
 6704SOL    HW221533   0.541   3.228   6.072  1.3037  0.2537  0.2695
 6705SOL     OW21534   1.951   7.120   7.600  0.3548  0.0096  1.1302
 6705SOL    HW121535   1.987   7.169   7.674 -0.0373  0.9032  0.7314
 6705SOL    HW221536   1.972   7.173   7.523 -2.0265  0.7171  0.8910
 6706SOL     OW21537   0.603   0.671   0.675  0.0075 -0.3842 -0.4333
 6706SOL    HW121538   0.681   0.725   0.663 -0.6387  0.4039 -1.2506
 6706SOL    HW221539   0.587   0.671   0.769  2.0850 -2.1613  0.0032
 6707SOL     OW21540   5.461   5.518   2.813  0.0153  0.1899  0.3258
 6707SOL    HW121541   5.414   5.597   2.785  1.6066  1.1573  0.2590
 6707SOL    HW221542   5.528   5.505   2.746 -1.3975 -2.4194 -0.7448
 6708SOL     OW21543   6.666   7.331   7.169  0.2043  0.5772 -0.1864
 6708SOL    HW121544   6.641   7.369   7.085  0.6876  1.8752  0.2294
 6708SOL    HW221545   6.695   7.243   7.148 -2.9941 -0.4272 -0.9014
 6709SOL     OW21546   1.931   6.445   1.304 -0.2517 -0.9145  0.3746
 6709SOL    HW121547   1.848   6.405   1.277 -0.7017 -1.0254  1.8707
 6709SOL    HW221548   1.943   6.418   1.395  0.9016 -0.0171  0.5151
 6710SOL     OW21549   4.204   4.218   4.516  0.0409  0.0722  0.2982
 6710SOL    HW121550   4.162   4.147   4.565 -0.0570 -1.0182 -1.2527
 6710SOL    HW221551   4.297   4.197   4.520 -0.1324 -1.8531 -2.4409
 6711SOL     OW21552   3.790   0.810   0.108 -0.1378  0.3805 -0.0451
 6711SOL    HW121553   3.860   0.745   0.100 -1.8840 -1.5435 -0.8124
 6711SOL    HW221554   3.827   0.879   0.164  1.6786 -1.4611  1.1831
 6712SOL     OW21555   0.157   4.951   2.444  0.4920  0.4133 -0.0398
 6712SOL    HW121556   0.110   5.011   2.504  0.5081 -1.8659  2.4507
 6712SOL    HW221557   0.099   4.876   2.436  0.9623  0.2305 -2.2102
 6713SOL     OW21558   4.922   3.498   7.296 -0.2259 -0.4400 -0.2885
 6713SOL    HW121559   4.964   3.412   7.300  0.5230 -0.2015 -1.8722
 6713SOL    HW221560   4.951   3.534   7.211  1.4550  2.3754  1.3163
 6714SOL     OW21561   7.686   5.706   5.839  0.0615 -0.0279  0.0093
 6714SOL    HW121562   7.641   5.622   5.838 -0.9317  0.4619  1.0918
 6714SOL    HW221563   7.616   5.772   5.835  0.8477  0.7721 -1.5480
 6715SOL     OW21564   6.793   3.675   5.304  0.3232  0.2608 -0.2092
 6715SOL    HW121565   6.836   3.603   5.259 -1.8331 -1.8550  0.8432
 6715SOL    HW221566   6.842   3.686   5.386  0.8809  0.2276 -0.5406
 6716SOL     OW21567   7.558   6.140   4.462 -0.1370  0.2678 -0.6705
 6716SOL    HW121568   7.637   6.151   4.410 -0.7624 -1.2126 -2.0406
 6716SOL    HW221569   7.531   6.228   4.485  1.2919  0.8493 -1.1180
 6717SOL     OW21570   6.993   2.645   6.605  0.1393  0.2596 -0.3706
 6717SOL    HW121571   6.965   2.579   6.541 -2.0705  1.3386 -0.6007
 6717SOL    HW221572   7.042   2.709   6.553  1.0624 -0.4376 -0.3923
 6718SOL     OW21573   1.098   7.984   5.416  0.5951  0.4185 -1.0435
 6718SOL    HW121574   1.182   7.947   5.443  0.7106  1.0991 -0.4379
 6718SOL    HW221575   1.047   7.991   5.498 -0.7599 -1.6794 -1.6225
 6719SOL     OW21576   0.310   7.560   6.203  0.0686  0.0532 -0.2442
 6719SOL    HW121577   0.353   7.646   6.205  2.4996 -1.0884  1.9971
 6719SOL    HW221578   0.224   7.577   6.241 -0.3735  1.8451 -1.8646
 6720SOL     OW21579   5.852   2.005   6.310  0.6057 -0.6062 -0.0990
 6720SOL    HW121580   5.876   2.078   6.367 -0.8574  1.7055 -2.2565
 6720SOL    HW221581   5.772   1.970   6.349 -1.7207  2.4335 -1.7183
 6721SOL     OW21582   0.507   5.907   0.290 -0.3825 -0.2844  0.1098
 6721SOL    HW121583   0.439   5.969   0.315 -0.6177 -1.2115  1.9377
 6721SOL    HW221584   0.472   5.821   0.314  1.0872 -0.8583  0.3593
 6722SOL     OW21585   3.492   7.004   4.620 -0.1852  0.5028 -0.0007
 6722SOL    HW121586   3.477   6.982   4.711 -1.1271  2.0918  0.2761
 6722SOL    HW221587   3.560   7.071   4.623  0.9774 -0.6084 -0.6210
 6723SOL     OW21588   6.787   7.109   4.826  0.4725 -0.1350  0.1224
 6723SOL    HW121589   6.843   7.099   4.749 -0.3333 -2.8312 -0.2276
 6723SOL    HW221590   6.827   7.054   4.893 -0.2072  0.1549  0.7910
 6724SOL     OW21591   5.707   0.043   7.358  0.2950 -0.2412  0.4722
 6724SOL    HW121592   5.619   0.076   7.344 -0.1263 -1.2293  0.7218
 6724SOL    HW221593   5.699  -0.017   7.433  0.8757 -1.4725 -0.4141
 6725SOL     OW21594   5.693   2.856   4.441 -0.8730  0.5790  0.4811
 6725SOL    HW121595   5.651   2.880   4.523 -1.7277  1.2497 -0.1346
 6725SOL    HW221596   5.621   2.829   4.384 -0.3302  0.4374 -0.1552
 6726SOL     OW21597   5.775   4.865   2.794 -0.1783 -0.1826  0.0813
 6726SOL    HW121598   5.848   4.832   2.847 -0.7920  0.4195  1.3517
 6726SOL    HW221599   5.794   4.958   2.782 -0.6616 -0.0520  0.2991
 6727SOL     OW21600   5.628   3.138   0.988  0.3180  0.4790 -0.1350
 6727SOL    HW121601   5.601   3.053   1.023  1.5064  0.0227 -0.2976
 6727SOL    HW221602   5.626   3.197   1.063  2.1319 -0.3229  0.5764
 6728SOL     OW21603   0.698   3.077   5.526 -0.1548 -0.3910 -0.3187
 6728SOL    HW121604   0.647   3.083   5.607  1.2554  1.4233  0.5117
 6728SOL    HW221605   0.636   3.101   5.457 -1.0391 -0.6705  0.3538
 6729SOL     OW21606   0.119   2.101   5.819  0.1941 -0.0897 -0.2051
 6729SOL    HW121607   0.140   2.115   5.912  2.2139 -0.5648 -0.5542
 6729SOL    HW221608   0.105   2.188   5.784  1.0984  0.2249  0.1885
 6730SOL     OW21609   4.546   6.112   1.753  0.0816  0.8359 -0.4996
 6730SOL    HW121610   4.566   6.122   1.660 -0.0487 -1.1034 -0.7826
 6730SOL    HW221611   4.623   6.146   1.799 -0.0371  2.2257 -1.2656
 6731SOL     OW21612   4.592   7.549   2.159  0.2237  0.5828 -0.2967
 6731SOL    HW121613   4.600   7.530   2.065 -0.7534  0.2855 -0.3353
 6731SOL    HW221614   4.630   7.636   2.169  1.1489  0.2486 -0.8157
 6732SOL     OW21615   2.620   1.330   7.481  0.5158  0.1674  0.2229
 6732SOL    HW121616   2.656   1.410   7.519  0.5370  0.1345  0.2741
 6732SOL    HW221617   2.610   1.349   7.388 -1.4207  0.9485  0.5425
 6733SOL     OW21618   2.270   6.808   0.159  0.1195  0.0940  0.3465
 6733SOL    HW121619   2.242   6.839   0.073 -0.7843 -0.0578  0.5757
 6733SOL    HW221620   2.267   6.886   0.215 -3.2341 -0.4936  1.1945
 6734SOL     OW21621   2.549   2.062   4.951 -0.0513  0.3213 -0.4368
 6734SOL    HW121622   2.635   2.046   4.910 -0.5432 -0.5049 -1.1955
 6734SOL    HW221623   2.545   2.000   5.024  0.6780  1.5474  0.6947
 6735SOL     OW21624   6.927   1.980   3.169 -0.6314  0.4137 -0.1268
 6735SOL    HW121625   6.896   1.895   3.138 -0.0719 -0.2940  1.1898
 6735SOL    HW221626   6.861   2.042   3.137 -1.1238 -0.5144 -0.9901
 6736SOL     OW21627   1.017   6.529   7.698 -0.2474  0.2904  0.0178
 6736SOL    HW121628   1.071   6.462   7.656  0.3481 -0.2676  1.5769
 6736SOL    HW221629   0.931   6.520   7.658  0.5140  0.4458 -1.7352
 6737SOL     OW21630   3.094   2.791   4.406  0.3303  0.1994 -0.5473
 6737SOL    HW121631   3.127   2.838   4.483 -0.4245 -2.0833  1.2744
 6737SOL    HW221632   3.051   2.714   4.441 -0.3541 -0.7896 -3.2851
 6738SOL     OW21633   5.486   4.530   6.993  0.5583 -0.4850  0.3030
 6738SOL    HW121634   5.455   4.458   6.939  0.5619  0.7864 -1.4766
 6738SOL    HW221635   5.571   4.553   6.957 -0.0879  1.3515 -0.1709
 6739SOL     OW21636   0.158   0.814   4.836 -0.8251 -0.1179  0.1708
 6739SOL    HW121637   0.160   0.730   4.791 -0.4575  0.2530 -0.5190
 6739SOL    HW221638   0.066   0.839   4.838 -0.9478 -0.5957  0.4889
 6740SOL     OW21639   3.677   5.047   1.150  0.1706 -0.2008 -0.1264
 6740SOL    HW121640   3.749   5.034   1.089 -0.0565 -0.7305 -0.2954
 6740SOL    HW221641   3.715   5.097   1.222  0.6851 -0.4079 -0.2477
 6741SOL     OW21642   6.448   0.026   6.550  0.0709 -0.2699 -0.0667
 6741SOL    HW121643   6.442   0.102   6.608  1.0869 -0.7530  0.7142
 6741SOL    HW221644   6.366  -0.021   6.562  1.0242 -1.4426  2.5969
 6742SOL     OW21645   3.014   4.105   1.202 -0.0334 -0.3297 -0.1578
 6742SOL    HW121646   2.967   4.118   1.119 -0.4101  0.2724  0.1424
 6742SOL    HW221647   2.959   4.044   1.251  1.0311 -2.0397 -1.0053
 6743SOL     OW21648   3.217   7.208   3.409 -0.3434  0.3777  0.2531
 6743SOL    HW121649   3.174   7.292   3.420  1.1182  1.2735 -0.5145
 6743SOL    HW221650   3.304   7.230   3.375  0.1821 -1.4241  0.3322
 6744SOL     OW21651   1.146   1.427   1.072 -0.2930 -0.2303 -0.1359
 6744SOL    HW121652   1.183   1.384   1.150 -1.8791 -0.2807  0.6488
 6744SOL    HW221653   1.166   1.367   1.000  2.0875  0.3005  0.0182
 6745SOL     OW21654   3.673   2.980   0.891  0.1329 -0.1744 -0.1062
 6745SOL    HW121655   3.716   2.920   0.952 -0.7077 -0.3607  0.3160
 6745SOL    HW221656   3.709   2.956   0.805 -0.0340 -1.1660  0.0853
 6746SOL     OW21657   0.445   5.292   6.367 -0.4979 -0.4261 -0.1624
 6746SOL    HW121658   0.367   5.294   6.312 -0.4153  0.7180 -0.2486
 6746SOL    HW221659   0.506   5.353   6.325 -0.8430  1.3721  1.7964
 6747SOL     OW21660   0.125   6.647   6.685 -0.2962  0.4886 -0.2954
 6747SOL    HW121661   0.175   6.684   6.758 -0.3073  1.1752 -0.6371
 6747SOL    HW221662   0.190   6.606   6.629 -0.4908 -3.1820  1.7892
 6748SOL     OW21663   4.249   7.081   2.277  0.1169  0.2708  0.4793
 6748SOL    HW121664   4.202   7.110   2.355  0.2298  2.4077 -0.1855
 6748SOL    HW221665   4.262   7.161   2.225  1.8966 -0.7258 -0.7411
 6749SOL     OW21666   6.149   1.886   2.060  0.1689 -0.1568 -0.2133
 6749SOL    HW121667   6.087   1.901   2.131 -0.3501  1.1869 -0.9190
 6749SOL    HW221668   6.106   1.922   1.982  1.8070  0.8087 -0.7214
 6750SOL     OW21669   7.877   5.957   0.632  0.2225  0.1490  0.1061
 6750SOL    HW121670   7.853   6.049   0.640 -0.3499 -0.1344  2.1267
 6750SOL    HW221671   7.866   5.937   0.539 -0.4549  1.8877 -0.2183
 6751SOL     OW21672   6.872   2.016   1.881  0.2234 -0.5021 -0.0254
 6751SOL    HW121673   6.783   2.034   1.852  0.4570 -0.3879 -0.6959
 6751SOL    HW221674   6.879   1.921   1.880 -0.0130 -0.5219  0.3973
 6752SOL     OW21675   2.354   6.707   7.171  0.2709  0.0376  0.2296
 6752SOL    HW121676   2.352   6.727   7.078  2.4975 -0.1456  0.0890
 6752SOL    HW221677   2.424   6.762   7.206  0.0610 -0.5394  1.6283
 6753SOL     OW21678   3.896   3.612   3.369  0.0686  0.1502 -0.9392
 6753SOL    HW121679   3.942   3.630   3.287 -1.0257  0.7975 -1.4444
 6753SOL    HW221680   3.827   3.679   3.372  0.0518  0.0869  0.4782
 6754SOL     OW21681   3.682   3.892   5.305  0.1920 -0.3652  0.3191
 6754SOL    HW121682   3.611   3.891   5.369 -0.1652 -0.3442 -0.0710
 6754SOL    HW221683   3.638   3.881   5.220  0.5185  0.9551 -0.0488
 6755SOL     OW21684   1.209   0.891   6.065 -0.2405 -0.2215 -0.0703
 6755SOL    HW121685   1.120   0.866   6.088 -0.7903  1.7824  0.1376
 6755SOL    HW221686   1.253   0.905   6.149  0.3211 -1.2870 -0.1687
 6756SOL     OW21687   4.220   6.130   1.778  0.0816 -0.2094  0.0357
 6756SOL    HW121688   4.212   6.083   1.694  1.3994  0.5082 -0.5233
 6756SOL    HW221689   4.286   6.080   1.827  0.3426  0.1585  0.0672
 6757SOL     OW21690   5.386   3.723   4.730  0.4470  0.1300  0.6226
 6757SOL    HW121691   5.300   3.763   4.725  0.6327  0.4018 -1.7661
 6757SOL    HW221692   5.415   3.738   4.820 -1.8521  0.2782  1.3810
 6758SOL     OW21693   5.765   7.155   3.506 -0.4233  0.5148 -0.3785
 6758SOL    HW121694   5.697   7.217   3.480 -0.4474  0.5656 -0.2035
 6758SOL    HW221695   5.842   7.210   3.521 -0.8766  0.7387  1.3954
 6759SOL     OW21696   1.708   4.569   2.262 -0.2716  0.4781  0.0265
 6759SOL    HW121697   1.754   4.559   2.346  0.9510  0.3244 -0.6317
 6759SOL    HW221698   1.634   4.509   2.268  0.2791 -0.1627  0.6900
 6760SOL     OW21699   3.299   2.773   4.707  0.8279  0.1695  0.9027
 6760SOL    HW121700   3.309   2.810   4.795  1.1550 -0.8301  1.2906
 6760SOL    HW221701   3.207   2.788   4.686  0.6877  0.1973  1.5149
 6761SOL     OW21702   7.582   7.574   1.604  0.0742 -0.2851 -0.0225
 6761SOL    HW121703   7.569   7.479   1.609  1.1662 -0.3931  0.9572
 6761SOL    HW221704   7.677   7.586   1.603 -0.0497  0.8008 -0.1929
 6762SOL     OW21705   4.748   5.249   2.377 -0.4143  0.3646  0.2592
 6762SOL    HW121706   4.691   5.281   2.447 -1.2783 -3.2413  1.4248
 6762SOL    HW221707   4.688   5.228   2.305  0.0341  0.6922 -0.2226
 6763SOL     OW21708   5.751   0.194   2.794 -0.3044 -0.5205 -0.0499
 6763SOL    HW121709   5.743   0.199   2.890 -2.0493 -2.2792 -0.0227
 6763SOL    HW221710   5.801   0.271   2.770  0.0894  0.0396  2.2741
 6764SOL     OW21711   7.117   6.758   7.367  0.4791 -0.2607  0.1265
 6764SOL    HW121712   7.107   6.688   7.303 -0.5942  0.2805 -0.3175
 6764SOL    HW221713   7.039   6.812   7.356  0.4513  0.0579  1.6256
 6765SOL     OW21714   1.089   5.576   6.267  0.3533 -0.0102  0.2510
 6765SOL    HW121715   0.994   5.565   6.261  0.3208 -0.0128  0.7269
 6765SOL    HW221716   1.125   5.492   6.239  0.1996 -0.1666  0.5131
 6766SOL     OW21717   5.080   2.073   4.106  0.6338 -0.6323  0.4563
 6766SOL    HW121718   5.037   2.068   4.021  2.0121  0.5746 -0.3596
 6766SOL    HW221719   5.011   2.103   4.166  0.2426  1.0417 -0.7589
 6767SOL     OW21720   1.241   7.968   4.224  0.1320 -0.4613 -1.2396
 6767SOL    HW121721   1.241   8.009   4.138  1.7906 -0.5717 -1.3150
 6767SOL    HW221722   1.331   7.939   4.238 -0.5692 -2.4925 -0.4326
 6768SOL     OW21723   2.593   2.150   6.144 -0.0097  0.2037 -0.0146
 6768SOL    HW121724   2.586   2.113   6.056  1.9155  0.9422 -0.5247
 6768SOL    HW221725   2.602   2.074   6.202 -1.9181 -0.3115 -0.3500
 6769SOL     OW21726   2.360   5.105   3.030 -0.3848  0.0704 -0.0357
 6769SOL    HW121727   2.423   5.064   3.088  1.3728  3.4638  0.7285
 6769SOL    HW221728   2.290   5.135   3.088  1.6053  3.9034  0.7329
 6770SOL     OW21729   5.458   4.208   2.613  0.1325 -0.4769  0.2530
 6770SOL    HW121730   5.463   4.160   2.696  1.9036  0.1965  0.5771
 6770SOL    HW221731   5.414   4.291   2.636  0.9875 -0.1156  0.6268
 6771SOL     OW21732   2.369   6.717   5.024  0.6207  0.0913  0.4579
 6771SOL    HW121733   2.435   6.724   4.955 -1.2084  0.3563 -1.3730
 6771SOL    HW221734   2.419   6.706   5.105  2.8869  1.0091 -0.7410
 6772SOL     OW21735   4.240   3.102   3.758 -0.4585  0.3760  0.3362
 6772SOL    HW121736   4.333   3.103   3.737 -0.3835  0.3062  0.6575
 6772SOL    HW221737   4.237   3.092   3.853 -0.7646  1.7480  0.4888
 6773SOL     OW21738   2.602   5.499   7.786 -0.1703  0.0239 -0.4804
 6773SOL    HW121739   2.517   5.539   7.798  0.2116  1.0176 -1.0134
 6773SOL    HW221740   2.615   5.445   7.864 -0.3222  1.6106  0.6832
 6774SOL     OW21741   4.001   3.704   7.189 -0.3251 -0.1577  0.2906
 6774SOL    HW121742   4.063   3.636   7.218  0.8281  1.3495  1.5332
 6774SOL    HW221743   3.919   3.681   7.232 -0.5711 -1.9500 -1.0365
 6775SOL     OW21744   3.512   6.204   1.604  0.0488 -0.2316  0.4840
 6775SOL    HW121745   3.469   6.217   1.689 -0.5311 -0.1855  0.1901
 6775SOL    HW221746   3.598   6.246   1.614  0.5669 -1.4722  1.5205
 6776SOL     OW21747   5.721   5.441   1.300 -0.0206 -0.9011 -0.7089
 6776SOL    HW121748   5.797   5.463   1.247 -0.6543  0.6617 -1.0189
 6776SOL    HW221749   5.733   5.349   1.322  1.6714 -0.8321 -1.2082
 6777SOL     OW21750   5.828   3.162   4.100 -0.0460  0.0172 -0.2631
 6777SOL    HW121751   5.866   3.105   4.033 -1.6043 -1.2270 -0.1752
 6777SOL    HW221752   5.741   3.184   4.066 -1.0749 -1.0434  1.4830
 6778SOL     OW21753   2.863   7.472   0.451  0.0577 -0.0127 -0.1811
 6778SOL    HW121754   2.937   7.530   0.471 -1.0122  1.5220 -0.4650
 6778SOL    HW221755   2.881   7.392   0.501  1.9337  0.2783 -0.3147
 6779SOL     OW21756   6.298   2.273   3.348  0.0002 -0.0171  0.6409
 6779SOL    HW121757   6.380   2.312   3.321 -0.5620  1.2360  0.6839
 6779SOL    HW221758   6.246   2.267   3.268 -0.3477  0.4023  0.8338
 6780SOL     OW21759   6.742   3.171   7.429  0.7197 -0.6662  0.2455
 6780SOL    HW121760   6.815   3.128   7.475  1.4179  0.0280 -0.1776
 6780SOL    HW221761   6.688   3.208   7.499  1.5056 -0.0396  0.5350
 6781SOL     OW21762   5.628   4.683   1.227 -0.0710 -0.0618 -0.7077
 6781SOL    HW121763   5.697   4.728   1.276  0.9993 -1.4050 -0.9214
 6781SOL    HW221764   5.624   4.730   1.144 -0.1748  0.6939 -0.2891
 6782SOL     OW21765   6.361   1.747   7.317  0.4259 -0.1519 -0.3336
 6782SOL    HW121766   6.417   1.680   7.357 -1.8114 -0.2825  2.9530
 6782SOL    HW221767   6.361   1.819   7.380 -0.6043  1.1567 -1.7554
 6783SOL     OW21768   0.191   5.583   5.486  0.6612 -0.1728 -0.6855
 6783SOL    HW121769   0.140   5.665   5.485  0.1243 -0.4941 -1.9013
 6783SOL    HW221770   0.151   5.530   5.418  2.0396 -0.8283 -1.0137
 6784SOL     OW21771   7.481   0.540   4.357  0.1067  0.3538 -0.7111
 6784SOL    HW121772   7.439   0.454   4.362 -1.0175  0.9176 -0.0965
 6784SOL    HW221773   7.428   0.596   4.414  0.8292  1.4511 -1.0860
 6785SOL     OW21774   7.804   6.529   0.564  0.2252 -0.8066  0.1747
 6785SOL    HW121775   7.808   6.494   0.475  0.3266  1.0569 -0.5979
 6785SOL    HW221776   7.715   6.563   0.572  0.7953  0.8389  0.0071
 6786SOL     OW21777   6.673   5.549   5.580 -0.1439 -0.3418 -0.2698
 6786SOL    HW121778   6.672   5.466   5.532  0.2559 -0.3194 -0.3194
 6786SOL    HW221779   6.681   5.615   5.512  1.9680 -0.3804 -0.1064
 6787SOL     OW21780   2.185   7.674   7.722 -0.2781  0.1962  0.3369
 6787SOL    HW121781   2.250   7.668   7.791 -0.7801  1.3134  0.9446
 6787SOL    HW221782   2.101   7.661   7.766 -0.5295 -0.2201 -0.2558
 6788SOL     OW21783   6.575   7.656   7.030 -0.4380 -0.2371 -0.6525
 6788SOL    HW121784   6.487   7.679   7.000 -0.4760  1.3116  0.5282
 6788SOL    HW221785   6.560   7.590   7.098 -0.5620 -1.2666 -1.6676
 6789SOL     OW21786   0.200   8.021   3.264  0.3919 -0.1749 -0.1552
 6789SOL    HW121787   0.227   8.112   3.259 -0.4455  0.0380 -1.3369
 6789SOL    HW221788   0.253   7.983   3.334  0.1009  1.4392  0.9870
 6790SOL     OW21789   7.924   4.851   0.879 -0.0977  0.0144 -0.0347
 6790SOL    HW121790   7.898   4.846   0.971 -0.2385 -2.1767 -0.1405
 6790SOL    HW221791   7.946   4.943   0.866 -3.1544  1.1108  1.3276
 6791SOL     OW21792   6.213   1.734   5.789  0.1042  0.4330 -0.2644
 6791SOL    HW121793   6.163   1.662   5.827 -1.8108  2.2426  0.9359
 6791SOL    HW221794   6.241   1.703   5.703 -1.8103 -1.2498 -0.3382
 6792SOL     OW21795   7.710   6.370   3.659  0.6337 -0.0959  0.2225
 6792SOL    HW121796   7.659   6.290   3.667 -0.2805  0.5329  0.9918
 6792SOL    HW221797   7.800   6.341   3.643  0.5070 -1.3069  1.5553
 6793SOL     OW21798   1.361   1.763   3.139 -0.4060  0.0115 -0.2431
 6793SOL    HW121799   1.269   1.753   3.163 -0.4821 -2.6758 -1.3102
 6793SOL    HW221800   1.363   1.838   3.079 -1.5770  1.1357  1.0504
 6794SOL     OW21801   5.128   3.995   7.695 -0.1845  0.0221 -1.1487
 6794SOL    HW121802   5.083   4.017   7.614  2.3653  0.5185 -2.5503
 6794SOL    HW221803   5.148   3.902   7.688 -0.1903  0.0051 -0.9625
 6795SOL     OW21804   0.191   6.053   6.971  0.0028 -0.3384 -0.1084
 6795SOL    HW121805   0.212   6.085   6.883  1.3419 -0.8891 -0.0115
 6795SOL    HW221806   0.095   6.047   6.972 -0.2487  2.3521 -0.5678
 6796SOL     OW21807   7.558   2.981   2.611  0.0903 -0.5094  0.0664
 6796SOL    HW121808   7.579   2.936   2.530  1.1258 -1.8736  1.0367
 6796SOL    HW221809   7.475   3.026   2.594  0.5747 -0.2821 -1.8982
 6797SOL     OW21810   5.205   2.200   3.052  0.1840  0.5776 -0.8513
 6797SOL    HW121811   5.152   2.280   3.056  2.0954  1.8840 -0.0941
 6797SOL    HW221812   5.251   2.198   3.136  1.4132 -0.4263 -1.5133
 6798SOL     OW21813   6.764   2.300   0.818  0.2552  0.0222 -0.0620
 6798SOL    HW121814   6.669   2.299   0.806  0.0977  2.4776  0.4650
 6798SOL    HW221815   6.778   2.357   0.893  2.2186  1.3858 -1.3611
 6799SOL     OW21816   2.106   2.740   1.294  0.6772  0.2956 -0.0110
 6799SOL    HW121817   2.158   2.687   1.355 -0.1264 -0.3278  0.1503
 6799SOL    HW221818   2.165   2.758   1.221  1.8361  1.4880  1.1515
 6800SOL     OW21819   3.381   7.995   0.606 -0.0053 -0.0447 -0.2615
 6800SOL    HW121820   3.353   8.082   0.634  0.5379  0.7403 -2.0447
 6800SOL    HW221821   3.476   8.001   0.601  0.2343 -1.3945  1.5475
 6801SOL     OW21822   2.317   8.036   1.348  0.5526  0.0300 -0.4606
 6801SOL    HW121823   2.381   8.057   1.280  1.1999 -0.6046 -0.0609
 6801SOL    HW221824   2.369   8.031   1.428 -0.2309  0.9882  0.1322
 6802SOL     OW21825   3.385   0.950   2.597 -0.7379 -0.1903  0.0398
 6802SOL    HW121826   3.362   0.858   2.584 -0.0103 -0.4191  0.3361
 6802SOL    HW221827   3.480   0.952   2.591 -0.7918  0.6609 -0.6512
 6803SOL     OW21828   0.942   4.067   0.175 -0.6600  0.2641  0.3855
 6803SOL    HW121829   0.867   4.126   0.174 -1.2316 -0.4366 -1.0268
 6803SOL    HW221830   0.907   3.985   0.211 -0.3663  0.1797  0.4773
 6804SOL     OW21831   5.479   6.602   6.920  0.0777  0.0370  0.1001
 6804SOL    HW121832   5.412   6.651   6.872 -0.5699 -0.8038  0.1220
 6804SOL    HW221833   5.458   6.510   6.903  0.9661 -0.2444  0.4744
 6805SOL     OW21834   7.419   2.227   4.527  0.1904  0.4178 -0.2700
 6805SOL    HW121835   7.362   2.170   4.475 -1.5562 -0.2228  2.1720
 6805SOL    HW221836   7.363   2.301   4.550  0.1767 -0.3059  2.3331
 6806SOL     OW21837   1.541   4.983   0.285  0.0863 -0.7161  0.0010
 6806SOL    HW121838   1.512   5.058   0.338 -1.5123 -0.7413 -0.7747
 6806SOL    HW221839   1.532   4.908   0.344  0.0224 -0.5177  0.2488
 6807SOL     OW21840   2.907   1.148   2.738 -0.3491  0.4807  0.0919
 6807SOL    HW121841   2.972   1.177   2.802  1.8351  1.2832 -2.2857
 6807SOL    HW221842   2.937   1.061   2.711 -0.9129  0.3737 -0.2103
 6808SOL     OW21843   7.313   3.305   2.305  0.2310 -0.1891 -0.2978
 6808SOL    HW121844   7.305   3.240   2.376  0.2405  1.5378  1.3811
 6808SOL    HW221845   7.406   3.304   2.282  0.3201 -0.4583  0.0573
 6809SOL     OW21846   5.126   1.707   2.807  0.8350  0.1047  0.0082
 6809SOL    HW121847   5.122   1.797   2.840 -0.8191  0.1791 -0.3165
 6809SOL    HW221848   5.072   1.657   2.868  0.7884 -0.4489 -0.4810
 6810SOL     OW21849   1.157   4.427   2.482 -0.1904  0.0716 -0.6771
 6810SOL    HW121850   1.174   4.488   2.411  1.1687 -0.0813 -0.5073
 6810SOL    HW221851   1.144   4.483   2.559 -0.3225  0.1952 -0.7907
 6811SOL     OW21852   0.086   6.385   3.700  0.3308 -0.0660 -0.0150
 6811SOL    HW121853   0.101   6.362   3.608  0.7292 -1.6217  0.4078
 6811SOL    HW221854   0.072   6.480   3.699  1.1869  0.0789 -1.5775
 6812SOL     OW21855   2.470   1.964   1.150  0.1923 -0.3282 -0.0961
 6812SOL    HW121856   2.434   2.009   1.226  0.9042 -0.2721  0.2165
 6812SOL    HW221857   2.503   1.881   1.185 -0.9110 -1.0175 -0.6290
 6813SOL     OW21858   6.097   3.140   4.493  0.2072 -0.5541 -0.4579
 6813SOL    HW121859   6.152   3.133   4.572  1.4302 -1.2475 -1.3390
 6813SOL    HW221860   6.106   3.056   4.450 -0.9034 -0.3771 -1.0812
 6814SOL     OW21861   7.280   2.629   6.255  0.3393  0.6681  0.0526
 6814SOL    HW121862   7.329   2.685   6.195  0.7404  1.9018  1.4780
 6814SOL    HW221863   7.344   2.603   6.321 -0.3816  0.3819  0.6468
 6815SOL     OW21864   6.764   2.494   6.202  0.4345  0.3768 -0.0903
 6815SOL    HW121865   6.703   2.563   6.226  1.2953  1.3587 -0.6685
 6815SOL    HW221866   6.713   2.433   6.149 -0.8557 -0.5377  2.0520
 6816SOL     OW21867   6.030   3.045   2.370 -0.1354 -0.1857 -0.0601
 6816SOL    HW121868   5.964   3.034   2.302  0.9490  0.6172 -1.2841
 6816SOL    HW221869   6.052   3.138   2.367 -1.0192  0.1763  2.3273
 6817SOL     OW21870   5.954   0.018   7.834  0.5609 -0.4454  0.2446
 6817SOL    HW121871   5.983  -0.042   7.766 -0.0576  0.1054 -0.5374
 6817SOL    HW221872   6.017   0.090   7.831 -0.4372  0.4417 -1.0152
 6818SOL     OW21873   4.180   2.711   1.196  0.0860 -0.2903 -0.2249
 6818SOL    HW121874   4.194   2.731   1.289 -0.6088  1.1707 -0.4084
 6818SOL    HW221875   4.257   2.747   1.152 -0.5460  0.9149 -0.4085
 6819SOL     OW21876   3.194   5.863   1.645 -0.1934  0.0776 -0.8764
 6819SOL    HW121877   3.161   5.882   1.557 -0.8481 -0.5990 -0.7869
 6819SOL    HW221878   3.206   5.949   1.686  2.0446  0.5328 -2.2830
 6820SOL     OW21879   1.582   1.839   1.156  0.2722  0.1357  0.0510
 6820SOL    HW121880   1.547   1.772   1.215 -1.7725  0.8295 -0.2862
 6820SOL    HW221881   1.635   1.895   1.212 -0.8761  0.2407  1.0876
 6821SOL     OW21882   7.695   0.169   6.653  0.0339 -0.1964 -0.2596
 6821SOL    HW121883   7.621   0.168   6.714  0.1962  0.4235 -0.0528
 6821SOL    HW221884   7.732   0.081   6.660  1.0019  0.3040  1.7168
 6822SOL     OW21885   2.314   7.807   1.927 -0.0191 -0.4555 -0.6399
 6822SOL    HW121886   2.374   7.750   1.976  0.8724  0.3115 -0.7996
 6822SOL    HW221887   2.273   7.861   1.993 -0.7573 -1.1752 -0.5020
 6823SOL     OW21888   1.924   3.237   0.175 -0.0132  0.3332  0.0677
 6823SOL    HW121889   1.993   3.173   0.154  0.0153  0.5714 -0.5795
 6823SOL    HW221890   1.844   3.185   0.179  0.1706  0.0846  0.6294
 6824SOL     OW21891   0.876   4.388   3.601  0.2170  0.3344 -0.4501
 6824SOL    HW121892   0.875   4.391   3.696  1.2296  0.0833 -0.4274
 6824SOL    HW221893   0.793   4.429   3.575  0.9042  2.4489  0.4866
 6825SOL     OW21894   6.906   6.572   6.585  0.3101  0.3558 -0.2708
 6825SOL    HW121895   6.990   6.616   6.596  0.9259 -1.2032  2.0477
 6825SOL    HW221896   6.923   6.482   6.613 -2.5135  0.4186  2.0311
 6826SOL     OW21897   5.722   3.778   3.540 -0.4264 -0.0508 -0.3985
 6826SOL    HW121898   5.708   3.844   3.607 -0.9683 -1.4515  0.9263
 6826SOL    HW221899   5.798   3.728   3.571 -0.1480 -0.1827 -1.2665
 6827SOL     OW21900   0.307   5.678   3.355  0.1511 -0.4233 -0.1022
 6827SOL    HW121901   0.277   5.609   3.413  0.0579 -1.1683 -1.0039
 6827SOL    HW221902   0.274   5.759   3.393 -2.3777 -1.1305 -0.6303
 6828SOL     OW21903   0.259   3.933   4.978 -0.4843  0.2617 -0.3480
 6828SOL    HW121904   0.320   3.981   5.034  0.9875 -0.1514 -1.5314
 6828SOL    HW221905   0.300   3.847   4.966 -1.0074  0.1732 -1.6464
 6829SOL     OW21906   7.870   3.674   6.309  0.0628  0.1799 -0.0058
 6829SOL    HW121907   7.882   3.609   6.378 -0.3293 -2.4143 -2.2174
 6829SOL    HW221908   7.778   3.700   6.316 -0.0980 -0.4211  0.1617
 6830SOL     OW21909   4.451   5.471   1.637 -0.2522  0.5947  0.2311
 6830SOL    HW121910   4.497   5.430   1.710 -1.4649  1.0792  1.3142
 6830SOL    HW221911   4.512   5.467   1.564  1.6035  1.4712  1.6718
 6831SOL     OW21912   1.681   3.086   1.518  0.0109 -0.5492  0.0415
 6831SOL    HW121913   1.747   3.142   1.558 -0.6029  0.7914 -0.7507
 6831SOL    HW221914   1.598   3.116   1.556 -0.2628 -1.4992  0.2317
 6832SOL     OW21915   3.864   3.888   0.609  0.2950 -0.7603  0.2838
 6832SOL    HW121916   3.826   3.908   0.524  0.4275 -0.9866  0.1719
 6832SOL    HW221917   3.817   3.809   0.638 -0.0796 -0.4186  0.6303
 6833SOL     OW21918   1.832   6.250   5.639 -0.0381 -0.2544  0.0005
 6833SOL    HW121919   1.859   6.268   5.549 -0.6249  0.9130  0.0401
 6833SOL    HW221920   1.739   6.230   5.633  0.0790 -0.9445  0.2736
 6834SOL     OW21921   0.181   2.851   6.452 -0.5081 -0.3142 -0.0223
 6834SOL    HW121922   0.263   2.886   6.486 -0.7377 -0.2533  0.4841
 6834SOL    HW221923   0.115   2.915   6.479 -0.4228  1.0286 -2.6676
 6835SOL     OW21924   1.321   7.982   1.210  0.0908 -0.0776  0.1409
 6835SOL    HW121925   1.408   7.951   1.186  0.4976  1.3567 -0.3007
 6835SOL    HW221926   1.336   8.064   1.257 -1.0278  0.4390 -0.3548
 6836SOL     OW21927   3.170   7.444   0.757  0.0404  0.5768  0.5921
 6836SOL    HW121928   3.186   7.355   0.725 -0.7037  0.6341  0.0215
 6836SOL    HW221929   3.123   7.431   0.840 -1.4809  0.4097 -0.2495
 6837SOL     OW21930   0.859   0.499   4.537 -0.1594  0.2240  0.5929
 6837SOL    HW121931   0.892   0.444   4.607  0.1933  0.1628  0.3831
 6837SOL    HW221932   0.828   0.437   4.471  0.9773  0.2415  0.0020
 6838SOL     OW21933   5.614   2.602   2.840  1.0188  0.0752  0.0640
 6838SOL    HW121934   5.562   2.595   2.759 -0.8022  1.2729  1.0493
 6838SOL    HW221935   5.572   2.540   2.900  1.4732  0.2044  0.5173
 6839SOL     OW21936   1.619   7.731   0.624 -0.1089  0.0724 -0.1865
 6839SOL    HW121937   1.544   7.673   0.640  2.2845 -2.6172  2.4596
 6839SOL    HW221938   1.666   7.691   0.551  0.4435 -0.1625  0.2876
 6840SOL     OW21939   1.647   3.311   6.920  0.2759 -0.7765  0.1800
 6840SOL    HW121940   1.717   3.246   6.920 -1.4110 -2.7036  0.9919
 6840SOL    HW221941   1.641   3.340   7.011  1.2809  0.9015 -0.2450
 6841SOL     OW21942   7.122   2.621   3.274 -0.2794  0.0582  0.0230
 6841SOL    HW121943   7.103   2.672   3.195  0.1564  0.3962  0.1349
 6841SOL    HW221944   7.129   2.531   3.243 -2.4316 -0.1761  0.0125
 6842SOL     OW21945   4.769   7.489   3.960  0.6983  0.0023 -0.1622
 6842SOL    HW121946   4.833   7.470   3.892  0.2213 -0.9168 -0.3736
 6842SOL    HW221947   4.757   7.405   4.005  2.0015  0.8692  1.9419
 6843SOL     OW21948   5.238   0.513   4.883 -0.3326 -0.3623 -0.2978
 6843SOL    HW121949   5.158   0.464   4.861 -1.1227  1.0236 -0.6132
 6843SOL    HW221950   5.277   0.533   4.798 -1.5531  2.0048 -0.3768
 6844SOL     OW21951   5.421   0.229   6.568 -0.3310  0.1426  0.0690
 6844SOL    HW121952   5.449   0.320   6.564  2.1949 -0.5115  0.6630
 6844SOL    HW221953   5.381   0.219   6.654  0.5204  0.4392  0.5126
 6845SOL     OW21954   6.383   1.469   0.522 -0.3253 -0.1593 -0.5839
 6845SOL    HW121955   6.337   1.471   0.437 -0.0735  0.6451 -0.7037
 6845SOL    HW221956   6.356   1.385   0.560 -0.5817 -0.4585 -1.3799
 6846SOL     OW21957   6.290   5.437   6.972 -0.4630  0.3288 -0.0845
 6846SOL    HW121958   6.312   5.520   6.929 -3.2674  0.4097 -1.5829
 6846SOL    HW221959   6.299   5.371   6.902 -0.0750 -0.3553  0.5975
 6847SOL     OW21960   1.497   6.855   3.874 -0.0608  0.1180  0.3821
 6847SOL    HW121961   1.541   6.917   3.816 -0.3293 -1.5900 -1.8161
 6847SOL    HW221962   1.405   6.859   3.846 -0.3693 -0.0907  1.3486
 6848SOL     OW21963   0.293   3.179   5.979 -0.4558  0.3587  0.0137
 6848SOL    HW121964   0.324   3.153   6.066  0.8414  1.7225  0.0010
 6848SOL    HW221965   0.203   3.148   5.976  0.2188 -1.9244  0.8720
 6849SOL     OW21966   4.772   7.571   3.242  0.2573 -0.2719  0.4182
 6849SOL    HW121967   4.732   7.556   3.157  1.9260  1.7533 -0.8129
 6849SOL    HW221968   4.733   7.652   3.273  1.1205  0.0751  0.6296
 6850SOL     OW21969   0.270   1.789   6.771  0.4135  0.2582 -0.4825
 6850SOL    HW121970   0.357   1.805   6.733  0.6222 -1.9958 -1.1051
 6850SOL    HW221971   0.268   1.695   6.785 -2.2166  0.1653 -1.1291
 6851SOL     OW21972   2.836   1.916   7.301  0.4744  0.2838 -0.3722
 6851SOL    HW121973   2.782   1.987   7.336  0.8738  0.8713 -0.9423
 6851SOL    HW221974   2.780   1.839   7.307 -0.6786  1.0000 -1.5598
 6852SOL     OW21975   2.678   1.911   0.193  0.0631 -0.2726 -0.2022
 6852SOL    HW121976   2.661   1.908   0.287 -0.0863  0.1322 -0.2151
 6852SOL    HW221977   2.748   1.848   0.179  1.0410  0.6478  0.3878
 6853SOL     OW21978   7.241   4.404   1.831  0.5987 -0.3696 -0.4633
 6853SOL    HW121979   7.162   4.455   1.847  0.2931 -0.6911 -0.9413
 6853SOL    HW221980   7.310   4.469   1.823  0.4910 -0.1157  0.5468
 6854SOL     OW21981   2.648   7.287   0.430 -0.4053 -0.4326 -0.2783
 6854SOL    HW121982   2.713   7.249   0.489 -0.1920  2.8358  1.8479
 6854SOL    HW221983   2.696   7.349   0.376 -1.5517  1.5915  0.9048
 6855SOL     OW21984   4.096   2.997   2.580  0.4381  0.0726  0.1675
 6855SOL    HW121985   4.071   3.088   2.561 -0.4215 -0.1911 -0.0115
 6855SOL    HW221986   4.014   2.949   2.577  0.9559 -0.8070 -0.2626
 6856SOL     OW21987   7.922   0.890   1.696  0.4544 -0.2353 -0.3985
 6856SOL    HW121988   7.988   0.842   1.746 -0.3445  0.0469  0.9531
 6856SOL    HW221989   7.954   0.886   1.605  1.7499 -1.0431  0.0651
 6857SOL     OW21990   0.375   2.579   5.171  0.1294  0.3148  0.1209
 6857SOL    HW121991   0.414   2.493   5.186 -0.3359 -0.0794 -0.7997
 6857SOL    HW221992   0.417   2.637   5.234  0.9499 -0.4460  0.2836
 6858SOL     OW21993   4.888   6.629   5.914 -0.4013 -0.1966  0.3727
 6858SOL    HW121994   4.794   6.647   5.918 -0.1490  1.3529  0.1603
 6858SOL    HW221995   4.928   6.699   5.966  0.7131  0.1300 -0.8460
 6859SOL     OW21996   1.725   4.594   2.920  0.0010 -0.3672 -0.6040
 6859SOL    HW121997   1.795   4.607   2.855  0.2949  2.1200  0.0980
 6859SOL    HW221998   1.685   4.681   2.929 -1.6807 -1.2254  0.7214
 6860SOL     OW21999   1.038   6.520   3.829  0.0276  0.0265 -0.1165
 6860SOL    HW122000   1.105   6.476   3.777  0.0313  1.1923 -1.1296
 6860SOL    HW222001   0.967   6.455   3.834  0.8564 -0.8884  0.2399
 6861SOL     OW22002   3.990   1.799   7.119 -0.0386 -0.1484 -0.2301
 6861SOL    HW122003   3.937   1.791   7.198  0.1374  0.4968 -0.0354
 6861SOL    HW222004   3.941   1.860   7.064  1.3923  2.0038  0.7554
 6862SOL     OW22005   0.043   6.436   2.892 -0.0734 -0.4222 -0.1666
 6862SOL    HW122006  -0.040   6.452   2.938  0.8616 -2.3761  2.4823
 6862SOL    HW222007   0.111   6.463   2.954  1.2682 -2.0276 -0.8518
 6863SOL     OW22008   6.947   1.163   6.828 -0.5843  0.4755  0.4499
 6863SOL    HW122009   6.998   1.135   6.904  0.3431  3.3131  1.0000
 6863SOL    HW222010   6.890   1.231   6.861 -3.0052 -0.8671 -0.7121
 6864SOL     OW22011   4.510   2.669   3.152  0.1121 -0.0705  0.0987
 6864SOL    HW122012   4.549   2.592   3.192  0.4107 -0.0468 -0.1432
 6864SOL    HW222013   4.499   2.645   3.060  2.4072  0.9896 -0.5272
 6865SOL     OW22014   3.224   6.588   2.484  0.4466  0.0524  0.4723
 6865SOL    HW122015   3.138   6.551   2.506  0.8889 -1.1679  0.2205
 6865SOL    HW222016   3.224   6.675   2.525 -1.2208  0.4206 -0.1983
 6866SOL     OW22017   2.809   8.005   3.071  0.2301  0.4287 -0.4633
 6866SOL    HW122018   2.739   7.983   3.133  1.7681 -1.7381  0.6276
 6866SOL    HW222019   2.832   8.095   3.092  0.4714 -0.1179  1.9811
 6867SOL     OW22020   3.567   4.584   0.260  0.8169 -0.1850  0.6588
 6867SOL    HW122021   3.492   4.574   0.202 -0.8560  2.0717  2.2925
 6867SOL    HW222022   3.630   4.519   0.228 -1.1352 -1.0360 -1.8008
 6868SOL     OW22023   2.284   1.912   5.019 -0.3490 -0.5423  0.6288
 6868SOL    HW122024   2.286   1.829   4.972 -1.2768 -0.4952  0.4980
 6868SOL    HW222025   2.309   1.978   4.954 -1.8614 -0.4455  0.1027
 6869SOL     OW22026   5.570   2.318   5.720 -0.8189  0.0195 -0.0378
 6869SOL    HW122027   5.557   2.305   5.626  0.4964  1.8027 -0.5040
 6869SOL    HW222028   5.616   2.239   5.749 -1.6774 -0.7669 -0.7573
 6870SOL     OW22029   6.803   5.121   3.906  0.6307 -0.6277  0.3583
 6870SOL    HW122030   6.875   5.159   3.957  0.4504  1.8155 -1.0525
 6870SOL    HW222031   6.842   5.047   3.861  2.4809  0.9559 -0.8028
 6871SOL     OW22032   3.642   3.172   0.585  0.3516  0.6322  0.4870
 6871SOL    HW122033   3.561   3.216   0.557  0.2588  0.2231  0.0988
 6871SOL    HW222034   3.625   3.079   0.570 -0.1040  0.2599  2.9194
 6872SOL     OW22035   1.642   2.528   7.434  0.3826 -0.1683 -0.2257
 6872SOL    HW122036   1.702   2.594   7.398 -0.8197  1.6554  0.9049
 6872SOL    HW222037   1.679   2.444   7.407  1.8977  0.9582 -1.8998
 6873SOL     OW22038   4.758   6.672   2.159  0.3710 -0.5041  0.2791
 6873SOL    HW122039   4.728   6.603   2.100  2.2291 -0.3848 -0.9000
 6873SOL    HW222040   4.682   6.693   2.212 -1.5745 -0.2943 -2.3783
 6874SOL     OW22041   4.565   5.192   2.196  0.1776 -0.2615  0.2662
 6874SOL    HW122042   4.503   5.136   2.243 -0.8573 -0.1526 -0.8927
 6874SOL    HW222043   4.519   5.276   2.189  0.8077  0.0720  0.0851
 6875SOL     OW22044   5.218   1.713   2.539  0.5196 -0.1301 -0.3286
 6875SOL    HW122045   5.295   1.767   2.521  0.3490 -0.4649 -2.3031
 6875SOL    HW222046   5.204   1.721   2.634  2.2879  0.8424 -0.1128
 6876SOL     OW22047   1.086   2.368   3.838  0.5888  0.2898 -0.6873
 6876SOL    HW122048   1.035   2.288   3.853  0.7025  0.5476  1.4524
 6876SOL    HW222049   1.079   2.384   3.744 -0.8681 -1.2740 -0.8965
 6877SOL     OW22050   5.119   4.983   7.774 -0.2984  0.1291 -0.7025
 6877SOL    HW122051   5.030   4.952   7.790  0.9077 -4.0292 -0.9333
 6877SOL    HW222052   5.148   5.017   7.858 -1.8609  1.0504 -0.4949
 6878SOL     OW22053   5.660   4.819   0.999 -0.1726 -0.1067 -0.5437
 6878SOL    HW122054   5.687   4.828   0.908 -0.4527  2.1584 -0.4609
 6878SOL    HW222055   5.632   4.907   1.024 -0.3084 -0.7299  1.6701
 6879SOL     OW22056   1.143   0.340   2.243  0.4699 -0.3237  0.1960
 6879SOL    HW122057   1.080   0.398   2.200 -0.5572 -0.9786  0.7738
 6879SOL    HW222058   1.213   0.398   2.271  0.0727  0.4467 -0.3491
 6880SOL     OW22059   1.672   1.469   3.461 -0.5626 -0.4732  0.1397
 6880SOL    HW122060   1.655   1.388   3.412 -2.6236  0.8500 -1.4742
 6880SOL    HW222061   1.592   1.520   3.452  0.7118  1.8262  1.0370
 6881SOL     OW22062   7.736   7.094   4.766  0.1600 -0.2780  0.5439
 6881SOL    HW122063   7.714   7.185   4.744 -0.4638 -0.4843  0.2848
 6881SOL    HW222064   7.829   7.086   4.745 -0.4462 -0.5673 -2.5194
 6882SOL     OW22065   1.774   6.329   7.969  0.3395  0.2772  0.1303
 6882SOL    HW122066   1.858   6.321   7.923  1.0071  2.3310  0.8591
 6882SOL    HW222067   1.792   6.294   8.057  0.5788  1.0699  0.4092
 6883SOL     OW22068   4.881   2.774   2.154 -0.3752  0.0871  0.2007
 6883SOL    HW122069   4.955   2.714   2.147  0.0975  0.6991 -0.0882
 6883SOL    HW222070   4.806   2.724   2.122 -0.1094 -0.5736  0.6047
 6884SOL     OW22071   1.637   2.522   5.960 -0.1345  0.2881  0.4695
 6884SOL    HW122072   1.556   2.485   5.925 -1.9559  2.6141  1.8510
 6884SOL    HW222073   1.637   2.497   6.053  0.9706 -0.0578  0.3858
 6885SOL     OW22074   5.027   5.324   4.127  0.4514  0.4986 -0.1932
 6885SOL    HW122075   5.121   5.308   4.119  0.8159  2.7909 -1.2269
 6885SOL    HW222076   4.987   5.259   4.069  1.2854 -1.2644  1.1481
 6886SOL     OW22077   5.633   3.583   3.747  0.1072 -0.5453 -0.4567
 6886SOL    HW122078   5.618   3.673   3.777 -0.5446 -0.7527 -0.1249
 6886SOL    HW222079   5.711   3.554   3.793 -1.7025 -1.3874  2.3419
 6887SOL     OW22080   4.217   0.650   0.992 -0.1092 -0.2095  0.2967
 6887SOL    HW122081   4.146   0.713   0.979  0.7125  0.6639 -0.0484
 6887SOL    HW222082   4.284   0.698   1.041  0.1822 -1.0762  0.7833
 6888SOL     OW22083   4.691   1.333   0.826 -0.2831  0.1658  0.0288
 6888SOL    HW122084   4.681   1.390   0.750  1.6851  0.4749 -0.0454
 6888SOL    HW222085   4.611   1.280   0.827 -0.4603  0.3099 -2.1244
 6889SOL     OW22086   0.865   0.882   1.488 -0.2767  0.4185 -1.0075
 6889SOL    HW122087   0.872   0.954   1.550  0.0190  0.7045 -1.3636
 6889SOL    HW222088   0.813   0.918   1.416 -1.8617 -0.3598 -0.2958
 6890SOL     OW22089   4.833   1.492   7.666 -0.7183 -0.3097 -0.4449
 6890SOL    HW122090   4.884   1.419   7.631 -1.0803  0.0150 -1.7151
 6890SOL    HW222091   4.850   1.490   7.760  1.7042 -0.1590 -0.8075
 6891SOL     OW22092   3.722   0.575   2.659  0.2066  0.0205 -0.3481
 6891SOL    HW122093   3.730   0.523   2.579  1.4947  1.1271 -0.9795
 6891SOL    HW222094   3.755   0.662   2.635  1.2154  0.2034  1.5307
 6892SOL     OW22095   1.676   4.005   7.133 -0.0280  0.3493 -0.1985
 6892SOL    HW122096   1.710   3.950   7.204  2.5362  3.3481  1.2093
 6892SOL    HW222097   1.600   3.958   7.100  0.5092 -2.7564  2.4261
 6893SOL     OW22098   0.182   2.146   6.080  0.4136  0.5595 -0.3916
 6893SOL    HW122099   0.262   2.146   6.133  0.6737  0.7064 -0.7726
 6893SOL    HW222100   0.120   2.093   6.129  0.2808  1.5984  0.6035
 6894SOL     OW22101   4.372   6.050   2.912 -1.1502 -0.2089  0.6198
 6894SOL    HW122102   4.407   6.018   2.829 -2.2541  0.3392 -0.0836
 6894SOL    HW222103   4.450   6.068   2.966 -0.3730  0.4043 -0.6655
 6895SOL     OW22104   3.637   6.197   4.987 -0.3605  0.0159 -0.9585
 6895SOL    HW122105   3.572   6.222   5.053 -0.6781 -0.2739 -1.1610
 6895SOL    HW222106   3.643   6.274   4.930  0.4321  0.5386 -0.1954
 6896SOL     OW22107   4.718   5.429   1.470  0.1590  0.0883 -0.2195
 6896SOL    HW122108   4.725   5.336   1.446  1.0161  0.1210 -0.1238
 6896SOL    HW222109   4.769   5.437   1.550 -1.9200  0.1787  1.1648
 6897SOL     OW22110   3.836   4.918   2.887 -0.5209  0.2913  0.9664
 6897SOL    HW122111   3.855   4.987   2.824 -1.3613  0.3292  0.7500
 6897SOL    HW222112   3.771   4.957   2.946  1.4484  0.8418  2.8804
 6898SOL     OW22113   4.915   4.229   4.544 -0.0913  0.3670  0.0619
 6898SOL    HW122114   4.885   4.224   4.634  0.1870 -2.0080  0.1081
 6898SOL    HW222115   4.984   4.162   4.538  0.1617  0.7219 -1.8103
 6899SOL     OW22116   3.390   7.450   2.068  0.2043  0.0690 -0.2629
 6899SOL    HW122117   3.445   7.398   2.010 -0.7125 -0.6157 -0.5439
 6899SOL    HW222118   3.307   7.403   2.071 -0.6107  1.4359 -0.4135
 6900SOL     OW22119   1.881   5.013   5.668  0.6524 -0.4573  0.1086
 6900SOL    HW122120   1.798   4.966   5.659  1.5553 -2.5351  1.5950
 6900SOL    HW222121   1.903   5.041   5.579 -0.8809 -1.2420 -0.5487
 6901SOL     OW22122   2.011   6.323   7.906 -0.2416 -0.3517  0.2596
 6901SOL    HW122123   2.047   6.397   7.953 -1.2127 -0.4523  1.1983
 6901SOL    HW222124   2.060   6.247   7.938  0.7645 -0.1482 -0.7149
 6902SOL     OW22125   0.415   6.290   7.722  0.3021 -0.4794  0.2862
 6902SOL    HW122126   0.495   6.270   7.673 -0.4231  0.5943 -1.4172
 6902SOL    HW222127   0.412   6.385   7.727 -2.1170 -0.3073 -2.0054
 6903SOL     OW22128   3.913   5.616   7.270  0.6308 -0.3289 -0.3582
 6903SOL    HW122129   3.830   5.618   7.222  0.8942  0.3093 -0.7938
 6903SOL    HW222130   3.892   5.656   7.355  0.3881 -0.5894 -0.2936
 6904SOL     OW22131   6.596   4.159   1.114 -0.4423  0.3979 -0.6265
 6904SOL    HW122132   6.651   4.149   1.191  0.0887 -0.1318 -1.0660
 6904SOL    HW222133   6.639   4.107   1.046 -1.1426  0.4852 -1.1562
 6905SOL     OW22134   5.261   0.050   7.566 -0.2459  0.1230  0.1735
 6905SOL    HW122135   5.322   0.033   7.638  0.1086  1.5826  0.2299
 6905SOL    HW222136   5.287   0.134   7.531 -2.6873  1.1813  0.6800
 6906SOL     OW22137   1.986   0.087   6.816  0.4651 -0.0862  0.4336
 6906SOL    HW122138   1.958   0.002   6.783  0.1022 -0.6267  2.0492
 6906SOL    HW222139   2.081   0.083   6.817  0.4645 -0.2304 -0.0915
 6907SOL     OW22140   1.404   8.038   4.655  0.5238  0.4219  0.3702
 6907SOL    HW122141   1.327   8.010   4.606  0.9271 -1.1731  0.6038
 6907SOL    HW222142   1.389   8.006   4.744  1.9896 -1.0215  0.1407
 6908SOL     OW22143   1.509   6.463   0.870  0.1487  0.6853  0.4361
 6908SOL    HW122144   1.444   6.529   0.895 -0.0084  0.5861  0.2873
 6908SOL    HW222145   1.493   6.391   0.931 -0.4889  0.2862 -0.1987
 6909SOL     OW22146   6.021   3.476   5.651  0.7383 -0.4710  0.0942
 6909SOL    HW122147   6.075   3.416   5.703  0.5685 -1.1538 -0.5094
 6909SOL    HW222148   6.084   3.538   5.614  0.9253 -0.3123  0.6663
 6910SOL     OW22149   5.114   6.317   2.207 -0.1853  0.4303  0.4863
 6910SOL    HW122150   5.174   6.372   2.158  0.0322  0.5432  0.8725
 6910SOL    HW222151   5.170   6.261   2.261 -0.4085 -0.0336  0.2422
 6911SOL     OW22152   4.636   1.727   6.665 -0.3140  0.9228  0.1401
 6911SOL    HW122153   4.579   1.755   6.593  0.9107  2.4789 -0.2611
 6911SOL    HW222154   4.607   1.778   6.740 -1.0643 -0.1252  0.5957
 6912SOL     OW22155   6.484   7.551   7.973 -0.3204  0.0860  0.0180
 6912SOL    HW122156   6.454   7.470   8.015  1.3268 -0.1085  0.9206
 6912SOL    HW222157   6.537   7.594   8.041  0.9659  0.6426 -1.2930
 6913SOL     OW22158   2.104   0.040   5.721  0.5274  0.0553  0.5467
 6913SOL    HW122159   2.181   0.084   5.758  0.0739  3.1373 -1.7971
 6913SOL    HW222160   2.038   0.109   5.716 -1.7677 -2.0195  0.5790
 6914SOL     OW22161   4.544   3.521   7.154  0.0938  0.0143 -0.3010
 6914SOL    HW122162   4.622   3.574   7.169 -0.9655  1.8895 -1.0877
 6914SOL    HW222163   4.571   3.432   7.177  2.8496  0.3689 -1.7157
 6915SOL     OW22164   7.899   5.218   6.410  0.1239  0.5252  0.4282
 6915SOL    HW122165   7.980   5.250   6.450  1.0597 -1.8081  0.5741
 6915SOL    HW222166   7.905   5.123   6.418 -2.2770  0.2557 -0.3089
 6916SOL     OW22167   0.585   6.037   1.550  0.1707  0.0006  0.9312
 6916SOL    HW122168   0.538   5.954   1.542  0.2536  0.0302  0.0422
 6916SOL    HW222169   0.636   6.028   1.630  1.2428 -1.3602  0.1256
 6917SOL     OW22170   3.071   2.909   4.665  0.3301  0.3066 -0.0463
 6917SOL    HW122171   2.998   2.883   4.722  0.6009 -0.9850 -0.2669
 6917SOL    HW222172   3.055   3.002   4.647 -2.1470 -0.2794 -1.3610
 6918SOL     OW22173   3.112   6.250   2.676  0.0229 -0.6103 -0.0065
 6918SOL    HW122174   3.067   6.275   2.595  1.1638 -0.4975 -0.6182
 6918SOL    HW222175   3.203   6.237   2.651  0.0517 -2.5200  0.8709
 6919SOL     OW22176   3.247   4.896   3.766  0.2644  0.4824  0.8881
 6919SOL    HW122177   3.230   4.812   3.809  0.1198  1.0366  1.9269
 6919SOL    HW222178   3.183   4.899   3.695  2.9055 -2.1546 -1.9187
 6920SOL     OW22179   1.594   1.722   2.482 -0.4505 -0.6927  0.0272
 6920SOL    HW122180   1.628   1.644   2.437  1.1589 -0.8140  1.3505
 6920SOL    HW222181   1.672   1.773   2.503 -1.3837  0.6471  0.3263
 6921SOL     OW22182   0.710   7.872   3.011  0.1993  0.0429  1.2022
 6921SOL    HW122183   0.712   7.904   2.921  0.1866 -2.4488  0.2334
 6921SOL    HW222184   0.802   7.871   3.037  0.2046  0.7631  1.2353
 6922SOL     OW22185   7.893   3.338   5.231 -0.3393 -0.2950 -1.1268
 6922SOL    HW122186   7.811   3.301   5.263 -0.0251 -0.0634 -0.0166
 6922SOL    HW222187   7.961   3.279   5.264 -0.0234 -0.3322 -1.8100
 6923SOL     OW22188   3.831   4.005   4.570 -0.1930  0.2638 -0.0264
 6923SOL    HW122189   3.809   3.959   4.489 -1.3060 -1.9297  1.4439
 6923SOL    HW222190   3.899   3.951   4.610 -0.4246  0.7326  1.0181
 6924SOL     OW22191   5.440   3.448   1.871 -0.1158 -0.0029  0.4404
 6924SOL    HW122192   5.394   3.498   1.804 -0.5718 -0.9736  0.0128
 6924SOL    HW222193   5.415   3.358   1.855 -0.7759 -0.1966  2.3356
 6925SOL     OW22194   6.903   6.305   1.271 -0.5341 -0.1513  0.0844
 6925SOL    HW122195   6.897   6.215   1.239  1.8365 -0.5215  0.4450
 6925SOL    HW222196   6.914   6.296   1.366  1.8921  0.3103 -0.0775
 6926SOL     OW22197   2.679   0.012   0.423  0.5212  0.0451 -0.6197
 6926SOL    HW122198   2.686  -0.077   0.390 -2.4522 -0.4123 -0.3084
 6926SOL    HW222199   2.660   0.001   0.517  0.7095  1.0232 -0.4533
 6927SOL     OW22200   5.337   5.607   0.816  0.4146  0.3647  0.2981
 6927SOL    HW122201   5.295   5.622   0.731 -0.4964 -1.5711  0.3410
 6927SOL    HW222202   5.266   5.611   0.879  0.5254 -1.2452  0.5749
 6928SOL     OW22203   5.862   5.273   0.333 -0.3428 -0.6151  0.1398
 6928SOL    HW122204   5.868   5.357   0.378 -0.5940 -0.4237 -0.1778
 6928SOL    HW222205   5.949   5.260   0.294 -0.3954 -0.3476 -0.0749
 6929SOL     OW22206   6.505   6.207   7.733 -0.1758  0.1628 -0.2605
 6929SOL    HW122207   6.594   6.177   7.748 -0.0082  1.3517  1.4793
 6929SOL    HW222208   6.515   6.294   7.694 -0.5954 -0.1645 -1.1109
 6930SOL     OW22209   4.845   1.225   2.495  0.6749  0.3320 -0.0808
 6930SOL    HW122210   4.779   1.184   2.551  2.6574 -2.0845  0.6650
 6930SOL    HW222211   4.798   1.295   2.449 -2.5129 -1.6344 -0.0639
 6931SOL     OW22212   7.578   7.711   3.569 -0.1226 -0.0093  0.9337
 6931SOL    HW122213   7.625   7.792   3.588 -0.7922  0.8490 -0.8705
 6931SOL    HW222214   7.556   7.676   3.655  1.0071  1.2164  1.7704
 6932SOL     OW22215   3.589   6.653   6.189 -0.0758  0.0617  0.7199
 6932SOL    HW122216   3.527   6.594   6.231  0.5494 -0.2711  1.1811
 6932SOL    HW222217   3.576   6.638   6.095  0.7118 -1.4860  0.8425
 6933SOL     OW22218   5.872   7.337   6.109 -0.4719 -0.4803  0.1933
 6933SOL    HW122219   5.826   7.418   6.088 -0.3295 -0.3090  0.5468
 6933SOL    HW222220   5.844   7.315   6.197 -2.0593 -1.8776 -0.5926
 6934SOL     OW22221   0.201   0.469   0.646  0.4625 -0.4323 -0.3735
 6934SOL    HW122222   0.187   0.376   0.664 -0.3736 -0.2288  0.0979
 6934SOL    HW222223   0.117   0.499   0.611  0.1062  0.5426  1.2239
 6935SOL     OW22224   1.453   5.197   2.392  0.4806  0.2912  0.5386
 6935SOL    HW122225   1.360   5.191   2.415  0.5116  0.8686  0.8466
 6935SOL    HW222226   1.470   5.118   2.341 -0.0040 -0.1801  1.0839
 6936SOL     OW22227   4.249   5.072   1.050 -0.1846  0.2240 -0.3515
 6936SOL    HW122228   4.192   5.029   1.114  3.0183 -1.4018  1.6159
 6936SOL    HW222229   4.189   5.098   0.980 -3.2680 -1.7083  1.3156
 6937SOL     OW22230   1.341   4.558   7.422  0.3022  0.1277  0.2647
 6937SOL    HW122231   1.282   4.520   7.356  0.1319  0.5074  0.1981
 6937SOL    HW222232   1.344   4.492   7.492  1.6428 -0.9783 -0.7484
 6938SOL     OW22233   3.169   7.328   4.357 -0.2618 -0.1363  0.4439
 6938SOL    HW122234   3.173   7.412   4.311 -2.0090 -0.3923 -0.2792
 6938SOL    HW222235   3.256   7.316   4.394  0.5667  1.1332 -0.9894
 6939SOL     OW22236   7.655   5.306   4.996  0.1985 -0.3851 -0.5536
 6939SOL    HW122237   7.623   5.281   4.909  1.3383  1.3521 -1.5164
 6939SOL    HW222238   7.630   5.398   5.005  1.5387 -0.0782  0.2623
 6940SOL     OW22239   3.894   0.921   5.973 -0.4509  0.2557  0.3836
 6940SOL    HW122240   3.819   0.918   5.914 -0.8680  0.1301  0.9052
 6940SOL    HW222241   3.863   0.970   6.049 -0.7613 -1.7258  1.6025
 6941SOL     OW22242   0.249   2.288   1.834  0.0920  0.1779 -0.7060
 6941SOL    HW122243   0.231   2.233   1.910  1.8502 -0.8905 -1.0132
 6941SOL    HW222244   0.172   2.276   1.778 -1.8337  1.9617  1.3427
 6942SOL     OW22245   0.550   3.191   0.482  0.0620  0.6965 -0.1286
 6942SOL    HW122246   0.535   3.145   0.565 -1.4928 -2.3674 -1.9239
 6942SOL    HW222247   0.643   3.179   0.464  0.2268  0.6278  0.7478
 6943SOL     OW22248   0.517   4.826   4.242  0.3221  0.4401  0.3385
 6943SOL    HW122249   0.582   4.766   4.278 -1.3268 -0.2867  2.3840
 6943SOL    HW222250   0.497   4.886   4.314 -1.4213  0.4667 -0.1021
 6944SOL     OW22251   3.611   1.933   4.575 -0.4914  0.0511  0.6089
 6944SOL    HW122252   3.657   1.849   4.584  0.4948 -0.0559 -3.5341
 6944SOL    HW222253   3.638   1.983   4.652  0.0769 -2.8408  2.4439
 6945SOL     OW22254   4.404   3.750   7.395 -0.4021 -0.0316  0.6813
 6945SOL    HW122255   4.352   3.796   7.328  1.1621 -0.9952 -1.3274
 6945SOL    HW222256   4.484   3.725   7.349  0.2611 -1.7709  2.6418
 6946SOL     OW22257   3.864   2.416   7.425  0.8729 -0.0028  0.3063
 6946SOL    HW122258   3.881   2.335   7.377 -0.8938 -0.0813 -0.2749
 6946SOL    HW222259   3.893   2.486   7.367 -1.2326 -0.0994 -0.9609
 6947SOL     OW22260   4.165   7.946   1.961 -0.5600 -0.1595  0.6264
 6947SOL    HW122261   4.166   7.905   2.047  0.9249  3.1795  2.4029
 6947SOL    HW222262   4.091   8.007   1.965  0.7889  1.5579  0.4453
 6948SOL     OW22263   0.466   6.793   6.507  0.4212  0.4091  0.2144
 6948SOL    HW122264   0.465   6.744   6.425  1.4955  0.5598  0.0925
 6948SOL    HW222265   0.484   6.883   6.481 -1.4490  0.8749  0.4430
 6949SOL     OW22266   5.306   1.517   4.025  0.2186  0.4017 -0.2900
 6949SOL    HW122267   5.364   1.445   4.046  1.2004  1.1601 -0.3253
 6949SOL    HW222268   5.233   1.508   4.086  1.0000  0.1613  0.6297
 6950SOL     OW22269   0.460   3.998   6.410  0.2835 -0.5885  0.5432
 6950SOL    HW122270   0.529   4.048   6.367  0.8489 -1.0841  0.8406
 6950SOL    HW222271   0.380   4.018   6.362  0.7863 -0.6235 -0.3146
 6951SOL     OW22272   5.068   1.906   7.029  0.3163  0.7367  0.5222
 6951SOL    HW122273   5.113   1.945   6.955 -0.3319  1.9159  0.7234
 6951SOL    HW222274   4.984   1.876   6.993  0.5385  0.1028  0.5111
 6952SOL     OW22275   4.124   1.086   2.799  0.1329 -0.4482  0.4523
 6952SOL    HW122276   4.089   1.126   2.879  0.9732 -1.2459  1.2468
 6952SOL    HW222277   4.188   1.022   2.831  0.6682 -0.5993 -0.8794
 6953SOL     OW22278   3.517   4.807   3.489 -0.1465 -0.1077  0.1471
 6953SOL    HW122279   3.495   4.717   3.466  0.1706 -0.6082  1.6625
 6953SOL    HW222280   3.601   4.824   3.445 -0.5216 -0.3190 -0.6604
 6954SOL     OW22281   7.061   3.714   0.767  0.1826  0.8038 -0.3870
 6954SOL    HW122282   6.987   3.655   0.782 -1.0542  2.6766  1.5939
 6954SOL    HW222283   7.064   3.725   0.672 -0.5982 -1.0892 -0.6768
 6955SOL     OW22284   5.805   6.262   1.452 -0.3714 -0.1040 -0.4093
 6955SOL    HW122285   5.889   6.243   1.412 -1.1777 -0.4359 -2.0425
 6955SOL    HW222286   5.760   6.177   1.456  0.0634 -0.2913  2.2697
 6956SOL     OW22287   7.574   1.525   1.656 -0.1438 -0.8589 -0.4295
 6956SOL    HW122288   7.629   1.583   1.604  1.5243  0.7654  2.8911
 6956SOL    HW222289   7.621   1.442   1.657  1.0386 -0.1944  0.4022
 6957SOL     OW22290   2.879   7.161   6.325 -0.0437  0.2835 -0.0897
 6957SOL    HW122291   2.841   7.073   6.337 -1.9924  1.1047  0.0702
 6957SOL    HW222292   2.959   7.145   6.275 -0.8581 -1.5022 -0.9348
 6958SOL     OW22293   2.350   4.020   4.216 -0.0858 -0.0454  0.0890
 6958SOL    HW122294   2.373   3.965   4.141  2.3732  0.3470  0.4869
 6958SOL    HW222295   2.336   4.107   4.179  0.7801  0.0750  0.0417
 6959SOL     OW22296   3.155   3.590   7.752 -0.2937 -0.1156 -0.5355
 6959SOL    HW122297   3.235   3.628   7.788  1.1068 -1.0699 -2.4959
 6959SOL    HW222298   3.090   3.659   7.763  0.7157  0.6200  1.2655
 6960SOL     OW22299   1.017   5.395   7.211 -0.2788  0.0569 -0.3262
 6960SOL    HW122300   1.088   5.397   7.275  0.7832 -2.5404 -1.2667
 6960SOL    HW222301   0.985   5.305   7.214 -2.6886  0.8213 -0.8854
 6961SOL     OW22302   0.861   1.573   0.486 -0.5814 -0.0365  0.1484
 6961SOL    HW122303   0.856   1.542   0.577  0.6441 -1.2525 -0.1702
 6961SOL    HW222304   0.810   1.509   0.436 -0.8675  0.3688 -0.0835
 6962SOL     OW22305   4.431   3.743   2.996  0.0429 -0.0718 -0.2955
 6962SOL    HW122306   4.393   3.676   2.940  0.6724 -1.2407  0.6403
 6962SOL    HW222307   4.359   3.804   3.012 -1.1643 -1.6524  0.5494
 6963SOL     OW22308   5.323   6.919   3.587 -0.1308  0.0961  0.5743
 6963SOL    HW122309   5.417   6.935   3.586 -0.1374  0.2898 -1.6216
 6963SOL    HW222310   5.287   6.985   3.528 -1.4392 -1.0732  0.0021
 6964SOL     OW22311   1.832   4.414   7.151  0.2936 -0.1817  0.2291
 6964SOL    HW122312   1.738   4.402   7.164  0.4169 -1.1621  0.3075
 6964SOL    HW222313   1.870   4.407   7.239  0.5255 -0.7900  0.0904
 6965SOL     OW22314   2.720   7.642   7.606  0.4413  0.3422 -0.1214
 6965SOL    HW122315   2.691   7.731   7.587  0.8018  0.3688 -0.5492
 6965SOL    HW222316   2.651   7.586   7.570 -0.0000  0.4511  0.5271
 6966SOL     OW22317   6.573   3.991   1.339  0.3689 -0.1577  0.2473
 6966SOL    HW122318   6.489   3.997   1.384 -0.3687  1.1176 -1.2116
 6966SOL    HW222319   6.639   3.999   1.408 -0.7215  0.6353  1.2207
 6967SOL     OW22320   1.897   2.799   4.027 -1.1063 -0.2006  0.5014
 6967SOL    HW122321   1.937   2.721   3.988 -0.8711 -0.1108  0.5634
 6967SOL    HW222322   1.905   2.866   3.959 -1.0912 -0.1635  0.5396
 6968SOL     OW22323   0.669   0.912   7.688  0.3337  0.5504 -0.2194
 6968SOL    HW122324   0.657   1.003   7.664  1.5329  0.5108 -1.0795
 6968SOL    HW222325   0.744   0.912   7.749 -0.5702  0.2806  0.9332
 6969SOL     OW22326   6.089   8.002   4.933 -0.2038  0.2927  0.4502
 6969SOL    HW122327   6.060   8.010   4.843 -1.5763 -0.0421  0.8352
 6969SOL    HW222328   6.173   8.048   4.936 -1.2316  2.3808 -0.4805
 6970SOL     OW22329   5.657   5.524   5.549  0.1396  0.0036 -0.2814
 6970SOL    HW122330   5.671   5.513   5.455  0.3064  0.0620 -0.2650
 6970SOL    HW222331   5.718   5.594   5.574  0.1683 -0.0803 -0.1115
 6971SOL     OW22332   5.576   5.987   0.395  0.1317  0.4868  0.0238
 6971SOL    HW122333   5.532   5.903   0.410  0.9723 -0.3415 -1.7293
 6971SOL    HW222334   5.630   6.000   0.473  1.6996 -1.7883 -0.5613
 6972SOL     OW22335   7.671   7.250   2.964  0.0373 -0.0497 -0.6544
 6972SOL    HW122336   7.593   7.218   3.010  0.8483  0.5610  1.2430
 6972SOL    HW222337   7.638   7.278   2.879 -1.8586  0.2564  0.1247
 6973SOL     OW22338   0.513   4.909   0.323  0.2654  1.0320  0.3161
 6973SOL    HW122339   0.465   4.978   0.368  1.3835  0.1960  2.9652
 6973SOL    HW222340   0.471   4.828   0.351  0.6362  0.4765 -0.6522
 6974SOL     OW22341   5.516   6.958   0.698  0.0341  0.6678  0.0141
 6974SOL    HW122342   5.475   6.993   0.777 -1.1714  0.9904 -0.7280
 6974SOL    HW222343   5.448   6.904   0.657  1.4089 -1.5376  0.4349
 6975SOL     OW22344   2.503   6.625   6.503  0.1795 -0.0653 -0.0397
 6975SOL    HW122345   2.457   6.610   6.586 -0.9432  2.0160 -0.2330
 6975SOL    HW222346   2.451   6.692   6.458  1.3587 -0.3705 -1.9653
 6976SOL     OW22347   5.284   5.313   4.083 -0.3841  0.1073  0.2336
 6976SOL    HW122348   5.302   5.219   4.085 -0.9006 -0.0369 -1.0222
 6976SOL    HW222349   5.361   5.351   4.043  0.3965  0.4037  1.9161
 6977SOL     OW22350   6.874   0.615   7.485 -0.0618  0.0754 -0.2535
 6977SOL    HW122351   6.830   0.549   7.538  0.4026 -0.6640 -0.7805
 6977SOL    HW222352   6.955   0.634   7.532 -0.6520  1.0438  0.4331
 6978SOL     OW22353   5.106   1.230   0.603 -0.1886 -0.1576 -0.8103
 6978SOL    HW122354   5.095   1.178   0.682  1.4089  1.0583  0.2687
 6978SOL    HW222355   5.120   1.165   0.534  1.3367 -1.2290  0.4172
 6979SOL     OW22356   0.236   1.979   5.170 -0.2520 -0.0317  0.0061
 6979SOL    HW122357   0.320   1.990   5.214 -0.6271 -0.0269  0.7398
 6979SOL    HW222358   0.222   1.884   5.169 -0.8274  0.0225  1.0550
 6980SOL     OW22359   5.342   4.949   2.187 -0.3420  0.3377  0.4276
 6980SOL    HW122360   5.367   5.016   2.251 -2.3675  1.2797  0.3021
 6980SOL    HW222361   5.297   4.997   2.118  0.1999 -0.8979 -0.8430
 6981SOL     OW22362   2.481   7.063   6.572  0.7788 -0.0731  0.0675
 6981SOL    HW122363   2.437   6.988   6.531 -1.9975  0.9113  1.0222
 6981SOL    HW222364   2.482   7.130   6.504  2.6898 -0.6967 -0.5807
 6982SOL     OW22365   2.301   3.467   5.813 -0.1521  0.2802 -0.2848
 6982SOL    HW122366   2.372   3.420   5.858 -0.9072 -0.2029  0.4395
 6982SOL    HW222367   2.302   3.555   5.852  0.7673  0.6333 -1.0868
 6983SOL     OW22368   7.552   4.817   6.763 -0.3062 -0.0013 -0.4330
 6983SOL    HW122369   7.558   4.902   6.721 -1.8534 -1.2744 -3.5523
 6983SOL    HW222370   7.459   4.793   6.756 -0.1190 -1.5137  1.3617
 6984SOL     OW22371   7.637   3.393   0.739  0.6348 -0.2368  0.2232
 6984SOL    HW122372   7.727   3.424   0.725  0.8806 -0.7317  0.6969
 6984SOL    HW222373   7.630   3.381   0.834 -0.0602  0.1730  0.2358
 6985SOL     OW22374   2.405   7.157   1.629 -0.4536  0.5422 -0.6168
 6985SOL    HW122375   2.482   7.209   1.608  0.3398 -0.1139  0.5577
 6985SOL    HW222376   2.395   7.167   1.724  0.3523 -2.2291 -0.1576
 6986SOL     OW22377   0.828   6.741   5.677  0.4674  0.3217  0.1987
 6986SOL    HW122378   0.883   6.705   5.747  2.0227  2.5595  0.2324
 6986SOL    HW222379   0.854   6.692   5.598  1.3328  0.2323  0.5311
 6987SOL     OW22380   0.525   5.194   0.045  0.0504 -0.6315  0.2203
 6987SOL    HW122381   0.452   5.186   0.106  0.7453 -0.9611  1.0335
 6987SOL    HW222382   0.582   5.121   0.068  0.4210 -0.6363 -0.7011
 6988SOL     OW22383   6.522   2.278   6.411  0.4354 -0.2368 -0.7233
 6988SOL    HW122384   6.466   2.201   6.404  0.4661 -0.1604 -2.2219
 6988SOL    HW222385   6.462   2.352   6.416  0.4008 -0.2596 -0.7990
 6989SOL     OW22386   6.321   7.326   4.765 -0.0673  0.0731 -0.5435
 6989SOL    HW122387   6.375   7.310   4.687  1.5661 -0.9262  0.7175
 6989SOL    HW222388   6.317   7.241   4.809 -1.3096  0.5248  0.2637
 6990SOL     OW22389   1.076   4.598   6.319 -0.4710  0.0330 -0.3459
 6990SOL    HW122390   1.088   4.585   6.413 -1.0824 -0.3288 -0.3186
 6990SOL    HW222391   1.033   4.684   6.312  0.9371  0.7695 -0.3843
 6991SOL     OW22392   6.352   6.698   6.876  0.0009 -0.3568 -0.0487
 6991SOL    HW122393   6.411   6.683   6.802 -1.5253 -1.5114 -1.0763
 6991SOL    HW222394   6.399   6.661   6.951  2.2243  2.1181 -0.0533
 6992SOL     OW22395   2.597   0.994   5.046 -0.5706  0.4255 -0.3412
 6992SOL    HW122396   2.615   0.976   5.138  2.9874 -0.0863 -1.0106
 6992SOL    HW222397   2.621   0.913   5.000 -1.5329  0.9265 -1.8260
 6993SOL     OW22398   3.563   6.778   4.818  0.0553 -0.3486 -0.6211
 6993SOL    HW122399   3.621   6.806   4.747  0.6101 -0.1892 -0.1081
 6993SOL    HW222400   3.619   6.729   4.878 -0.1677  0.4178  0.2405
 6994SOL     OW22401   2.748   5.769   1.888  0.1269 -0.3659 -0.1064
 6994SOL    HW122402   2.690   5.845   1.897 -0.8793 -1.2604  1.6866
 6994SOL    HW222403   2.780   5.754   1.977 -0.5467 -2.6439 -0.1841
 6995SOL     OW22404   4.457   0.442   0.171  0.5457  0.5887  0.3585
 6995SOL    HW122405   4.539   0.454   0.218 -0.4037  0.6053  2.1227
 6995SOL    HW222406   4.390   0.474   0.232 -0.7885  0.3209 -0.9112
 6996SOL     OW22407   3.667   2.786   3.273  0.3244  1.1840 -0.3136
 6996SOL    HW122408   3.669   2.864   3.218  0.3818  1.1197 -0.4031
 6996SOL    HW222409   3.575   2.778   3.300 -0.1024  0.1576 -1.9186
 6997SOL     OW22410   5.936   3.653   4.587 -0.1205 -0.3458 -0.0571
 6997SOL    HW122411   5.962   3.739   4.622  1.0365 -0.2400 -1.1248
 6997SOL    HW222412   5.959   3.592   4.656  0.5526  0.0353  0.0632
 6998SOL     OW22413   1.562   5.100   5.748 -0.6703  0.0143 -0.1438
 6998SOL    HW122414   1.484   5.121   5.696 -0.3606  0.2782 -0.5113
 6998SOL    HW222415   1.581   5.008   5.725 -0.2103  0.2945 -0.9428
 6999SOL     OW22416   5.298   5.062   0.462 -0.1235  0.2960  0.0747
 6999SOL    HW122417   5.368   5.028   0.407 -0.5249  3.1452 -2.4224
 6999SOL    HW222418   5.335   5.062   0.550  1.8079 -1.2541 -0.6689
 7000SOL     OW22419   7.252   5.812   7.100  0.0059 -0.5376  0.2278
 7000SOL    HW122420   7.206   5.745   7.049 -1.0580  0.2233  0.1596
 7000SOL    HW222421   7.200   5.891   7.089  1.0269  0.2172  0.6294
 7001SOL     OW22422   7.418   3.455   3.850 -0.3152  0.1968 -0.0708
 7001SOL    HW122423   7.371   3.530   3.812 -0.6370  0.5757  1.0423
 7001SOL    HW222424   7.350   3.403   3.892  0.2733  1.0808  2.1110
 7002SOL     OW22425   5.705   2.642   5.940 -0.7030  0.3202  1.3089
 7002SOL    HW122426   5.699   2.701   6.015  0.3161 -0.7516  2.2750
 7002SOL    HW222427   5.614   2.619   5.921 -1.0877  1.8884  1.1422
 7003SOL     OW22428   0.266   3.290   3.582 -0.0969  0.1107  0.2416
 7003SOL    HW122429   0.205   3.361   3.562 -1.1241 -0.8097 -0.0157
 7003SOL    HW222430   0.244   3.265   3.672  0.0955 -0.0301  0.2494
 7004SOL     OW22431   5.394   3.581   6.858  0.0571 -0.1574 -0.0923
 7004SOL    HW122432   5.430   3.669   6.866  0.5912 -0.4251  0.5708
 7004SOL    HW222433   5.416   3.538   6.941 -1.4268 -0.4749  0.1594
 7005SOL     OW22434   0.795   1.936   4.210  0.7149 -0.4217  0.2041
 7005SOL    HW122435   0.807   1.951   4.304  0.6341 -0.1932  0.1774
 7005SOL    HW222436   0.770   2.021   4.175 -0.9332 -0.8530  0.2511
 7006SOL     OW22437   2.769   0.171   0.688 -0.3438  0.0111 -0.2182
 7006SOL    HW122438   2.829   0.113   0.735 -2.0158 -2.3924 -0.8799
 7006SOL    HW222439   2.795   0.163   0.596  0.0374  1.1437 -0.2258
 7007SOL     OW22440   2.947   3.799   5.391 -0.1798 -0.2684 -0.0138
 7007SOL    HW122441   2.877   3.741   5.362 -1.5835  0.5153  1.6270
 7007SOL    HW222442   3.003   3.744   5.447 -0.5657 -0.4374  0.2065
 7008SOL     OW22443   5.687   6.583   4.160 -0.1043  0.4950  0.2647
 7008SOL    HW122444   5.591   6.580   4.150 -0.2676 -1.8269  1.7320
 7008SOL    HW222445   5.702   6.555   4.250  1.9879  0.9628  0.1090
 7009SOL     OW22446   1.744   1.520   2.280 -0.1019 -0.1615  0.0431
 7009SOL    HW122447   1.805   1.507   2.207 -0.6029  1.9426 -0.8388
 7009SOL    HW222448   1.660   1.542   2.237 -0.3093  1.4998  1.1990
 7010SOL     OW22449   1.618   5.913   2.012  0.1176  0.0850 -0.4252
 7010SOL    HW122450   1.587   6.003   2.015 -0.9542 -0.3069  0.9493
 7010SOL    HW222451   1.604   5.887   1.920 -1.6721  0.6194 -0.3508
 7011SOL     OW22452   6.435   0.206   0.238  1.0825  0.4567  0.4492
 7011SOL    HW122453   6.381   0.145   0.290  2.7036  0.6803  2.5053
 7011SOL    HW222454   6.490   0.149   0.184  1.5821  0.1149  1.3039
 7012SOL     OW22455   4.780   5.378   0.706  0.4649  0.4430  0.4974
 7012SOL    HW122456   4.816   5.323   0.636  0.9769  1.4901 -0.0932
 7012SOL    HW222457   4.830   5.460   0.700  0.5563  0.5333  2.1496
 7013SOL     OW22458   3.803   2.429   3.597  0.4609  0.0767  0.1392
 7013SOL    HW122459   3.832   2.500   3.539 -0.1152  0.0097 -0.2434
 7013SOL    HW222460   3.808   2.467   3.685 -0.4849  0.8332 -0.1123
 7014SOL     OW22461   7.532   3.891   3.810  0.2174  0.0365  0.2090
 7014SOL    HW122462   7.561   3.816   3.861 -0.0485 -0.1353  0.1079
 7014SOL    HW222463   7.444   3.909   3.841 -0.4813 -0.9164 -1.1280
 7015SOL     OW22464   4.159   6.064   0.552 -0.3684  0.2784 -0.5157
 7015SOL    HW122465   4.074   6.105   0.538 -0.0355  1.3383  0.3789
 7015SOL    HW222466   4.171   6.005   0.478 -2.2892 -0.5948 -0.1670
 7016SOL     OW22467   4.315   4.546   5.742 -0.2119  0.3168 -0.3990
 7016SOL    HW122468   4.321   4.640   5.726  1.6777  0.2535 -0.2644
 7016SOL    HW222469   4.325   4.536   5.837  0.3431 -0.0588 -0.4909
 7017SOL     OW22470   1.593   2.596   2.077 -0.1529 -0.0890 -0.8932
 7017SOL    HW122471   1.678   2.638   2.064  0.0638 -0.0622  0.4241
 7017SOL    HW222472   1.562   2.631   2.161 -0.5239 -1.6137 -0.3564
 7018SOL     OW22473   0.952   1.422   0.189  0.7746  0.1625 -0.2725
 7018SOL    HW122474   0.952   1.425   0.285  1.3057  2.3802 -0.2863
 7018SOL    HW222475   0.929   1.511   0.162 -2.2442 -1.0575 -2.2772
 7019SOL     OW22476   1.692   5.560   4.590  0.2959  0.2084 -0.2282
 7019SOL    HW122477   1.651   5.476   4.611  1.2724 -0.2216  0.0284
 7019SOL    HW222478   1.646   5.623   4.644  1.7283 -0.6498  2.1329
 7020SOL     OW22479   6.251   0.575   7.834 -0.0180 -0.2846  0.0843
 7020SOL    HW122480   6.339   0.598   7.803 -0.9184  0.4263 -2.1470
 7020SOL    HW222481   6.218   0.513   7.769 -3.1536  3.5860 -2.4841
 7021SOL     OW22482   2.838   7.296   7.660 -0.7424  0.2237 -0.3172
 7021SOL    HW122483   2.802   7.209   7.647 -0.9411 -0.1456  2.1775
 7021SOL    HW222484   2.768   7.356   7.632 -0.3781 -0.3516 -2.6133
 7022SOL     OW22485   5.602   4.691   0.021  0.4758 -0.0498  0.3452
 7022SOL    HW122486   5.677   4.681  -0.039  0.7515  0.7740  0.5385
 7022SOL    HW222487   5.620   4.773   0.068 -1.2778  0.9583 -0.6484
 7023SOL     OW22488   6.670   5.591   2.188 -0.7991  0.4093  0.4627
 7023SOL    HW122489   6.668   5.686   2.198  1.3393  0.5016  0.5495
 7023SOL    HW222490   6.702   5.559   2.272  0.6253 -0.1742 -0.2583
 7024SOL     OW22491   8.053   6.851   2.172 -0.5558  0.3801 -0.1769
 7024SOL    HW122492   8.016   6.853   2.260  0.3715  1.2220  0.2167
 7024SOL    HW222493   8.106   6.931   2.166  1.0998 -0.6928 -0.7297
 7025SOL     OW22494   3.780   2.712   7.988  0.4879  0.1625  0.3460
 7025SOL    HW122495   3.814   2.688   7.902  0.9559  1.5320  0.1179
 7025SOL    HW222496   3.856   2.750   8.033 -0.1796  1.1489  0.6691
 7026SOL     OW22497   1.623   7.144   5.237  0.3489  0.0957 -0.1613
 7026SOL    HW122498   1.602   7.226   5.282 -1.4437 -1.2180  1.5230
 7026SOL    HW222499   1.589   7.158   5.148  0.2288  1.2473  0.0411
 7027SOL     OW22500   1.068   1.081   3.440  0.4782 -0.2729  0.1955
 7027SOL    HW122501   0.994   1.142   3.442 -0.9491 -1.9216 -0.2312
 7027SOL    HW222502   1.057   1.028   3.518  1.0437 -0.7145 -0.0209
 7028SOL     OW22503   2.761   2.343   0.617  0.0710 -0.5501  0.6349
 7028SOL    HW122504   2.832   2.289   0.650  0.8870 -1.1239 -1.9024
 7028SOL    HW222505   2.710   2.285   0.560  0.1733  0.9483 -1.0662
 7029SOL     OW22506   2.902   3.221   2.184 -0.0001  0.1128 -0.2896
 7029SOL    HW122507   2.826   3.165   2.169  0.3984 -0.1097 -1.6447
 7029SOL    HW222508   2.974   3.160   2.201  0.2414  0.2325 -0.8441
 7030SOL     OW22509   4.526   2.142   7.947 -0.1064  0.4829 -0.3515
 7030SOL    HW122510   4.518   2.056   7.904 -1.9716 -0.1192  1.0696
 7030SOL    HW222511   4.597   2.130   8.011 -0.3587 -0.0177 -0.1556
 7031SOL     OW22512   7.191   5.430   5.627 -0.1625 -0.1065  0.1195
 7031SOL    HW122513   7.111   5.473   5.599  0.3317  0.3457 -0.6382
 7031SOL    HW222514   7.224   5.385   5.549  1.3699  1.3796 -0.1425
 7032SOL     OW22515   4.947   3.722   7.774  0.0838 -0.1710 -0.1720
 7032SOL    HW122516   4.912   3.728   7.685 -0.6353 -2.4909 -0.1274
 7032SOL    HW222517   5.040   3.699   7.762 -0.3208 -1.8335 -0.3908
 7033SOL     OW22518   0.512   6.882   1.747  0.1037  0.1509 -0.3344
 7033SOL    HW122519   0.554   6.894   1.832  2.2655  1.2784 -1.4750
 7033SOL    HW222520   0.515   6.788   1.732 -1.3498 -0.2056  1.2878
 7034SOL     OW22521   6.217   6.775   4.607 -0.7359 -0.3696 -0.2477
 7034SOL    HW122522   6.283   6.796   4.541 -1.0915  0.1000 -0.4614
 7034SOL    HW222523   6.134   6.782   4.560 -0.9553 -0.6483  0.0958
 7035SOL     OW22524   7.841   0.662   1.955  0.0652 -0.2214  0.3924
 7035SOL    HW122525   7.790   0.695   1.881 -1.0763  0.4739  1.4481
 7035SOL    HW222526   7.931   0.683   1.933 -0.3833  1.2095 -0.2061
 7036SOL     OW22527   2.313   7.727   3.735  0.2300 -0.3024 -0.2121
 7036SOL    HW122528   2.363   7.808   3.723  0.7435 -0.8028 -1.8122
 7036SOL    HW222529   2.353   7.666   3.673 -0.5357 -1.6046  0.5372
 7037SOL     OW22530   1.401   0.956   6.684 -0.0941 -0.0702  0.3284
 7037SOL    HW122531   1.436   0.924   6.600 -0.0994 -0.7690  0.5884
 7037SOL    HW222532   1.477   0.995   6.728 -0.3538  1.5331 -0.5549
 7038SOL     OW22533   7.011   6.561   4.142 -0.5521  0.0336 -0.0123
 7038SOL    HW122534   7.011   6.566   4.237  0.1187  1.1771 -0.0539
 7038SOL    HW222535   7.090   6.512   4.120 -1.1286 -0.9443  0.0270
 7039SOL     OW22536   4.902   2.741   3.032  0.1998  0.0919 -0.1973
 7039SOL    HW122537   4.933   2.813   3.088 -0.0086  0.2383 -0.2686
 7039SOL    HW222538   4.925   2.662   3.081  1.2759  0.1716 -0.5496
 7040SOL     OW22539   2.103   6.355   6.503 -0.0861 -0.2790 -0.1493
 7040SOL    HW122540   2.177   6.299   6.483 -1.0871 -1.5552 -0.4138
 7040SOL    HW222541   2.115   6.380   6.595  1.8319  1.4113 -0.7904
 7041SOL     OW22542   0.548   7.119   8.000  0.0360  0.2685  0.4097
 7041SOL    HW122543   0.577   7.040   7.954  1.4375  0.9842  0.0165
 7041SOL    HW222544   0.614   7.185   7.980  0.4038  0.8038  2.9697
 7042SOL     OW22545   6.053   7.338   1.692 -0.7889 -0.4439  0.3876
 7042SOL    HW122546   6.144   7.367   1.696 -0.5667 -1.0728 -0.0380
 7042SOL    HW222547   6.048   7.264   1.752 -1.1920  0.0334  0.9515
 7043SOL     OW22548   6.424   3.205   4.084  0.9468  0.0136  0.0125
 7043SOL    HW122549   6.396   3.205   4.176  1.4391  1.1191  0.1790
 7043SOL    HW222550   6.503   3.259   4.083  0.8701  0.1262 -1.0813
 7044SOL     OW22551   7.769   2.135   1.720 -0.2215  0.3663  0.2217
 7044SOL    HW122552   7.821   2.068   1.764  0.1423  1.0655  0.8698
 7044SOL    HW222553   7.692   2.145   1.776  0.1028  1.0512  0.5465
 7045SOL     OW22554   5.560   1.236   4.956  1.0288  0.2082  0.2100
 7045SOL    HW122555   5.478   1.266   4.916  0.1790 -0.9342  0.9974
 7045SOL    HW222556   5.532   1.199   5.040  2.2666 -0.8997  0.1587
 7046SOL     OW22557   0.279   0.802   0.505  0.1330 -0.1841 -0.4112
 7046SOL    HW122558   0.353   0.861   0.521 -0.9880  0.7449  1.8528
 7046SOL    HW222559   0.273   0.748   0.584 -1.4733 -0.3460 -0.6019
 7047SOL     OW22560   4.388   5.284   3.264 -0.7465 -0.3726  0.0712
 7047SOL    HW122561   4.452   5.281   3.193  0.3269  3.2058  0.6716
 7047SOL    HW222562   4.440   5.301   3.343 -1.8429 -4.6615  2.0034
 7048SOL     OW22563   2.118   5.268   6.256 -0.1674  0.2241 -0.0401
 7048SOL    HW122564   2.050   5.248   6.192 -0.4863 -0.0364  0.3723
 7048SOL    HW222565   2.133   5.185   6.302  0.3453  0.3091 -0.0532
 7049SOL     OW22566   5.541   4.755   1.733  0.4218 -0.0232 -0.5192
 7049SOL    HW122567   5.451   4.734   1.711  0.3643  0.2455 -0.5448
 7049SOL    HW222568   5.536   4.797   1.819  0.8810 -3.3593  1.2808
 7050SOL     OW22569   5.769   5.897   2.905  0.4539 -0.0255 -0.5347
 7050SOL    HW122570   5.796   5.830   2.843  0.0227 -0.2276 -0.5103
 7050SOL    HW222571   5.763   5.852   2.989  1.6976  0.3956 -0.2002
 7051SOL     OW22572   1.526   4.392   8.042 -0.1428 -0.1288 -0.3894
 7051SOL    HW122573   1.435   4.374   8.064  0.1015 -1.4857 -0.3957
 7051SOL    HW222574   1.523   4.473   7.990 -1.5493 -1.1006 -1.9204
 7052SOL     OW22575   3.222   3.279   1.571 -0.2813 -0.2697 -0.3476
 7052SOL    HW122576   3.192   3.354   1.519  0.0719 -0.2041 -0.4625
 7052SOL    HW222577   3.313   3.300   1.593 -0.0827 -0.8007 -0.6397
 7053SOL     OW22578   1.092   4.786   1.062 -0.5902 -0.1830  0.4049
 7053SOL    HW122579   1.156   4.850   1.094 -1.6869  0.6078  1.0925
 7053SOL    HW222580   1.085   4.805   0.968 -0.5761  0.4092  0.5175
 7054SOL     OW22581   3.241   6.507   3.581  0.2238 -0.5910  0.0550
 7054SOL    HW122582   3.294   6.498   3.502 -0.8319  2.0778 -1.0861
 7054SOL    HW222583   3.262   6.594   3.614 -0.5762 -1.0144  1.8055
 7055SOL     OW22584   6.991   7.177   5.579  0.8277  0.2513 -0.1137
 7055SOL    HW122585   7.027   7.169   5.667  0.7068  0.1059 -0.0768
 7055SOL    HW222586   7.065   7.203   5.525  0.6262  1.6994  0.2643
 7056SOL     OW22587   2.061   4.221   4.345 -0.0704 -0.1066 -0.3519
 7056SOL    HW122588   2.032   4.268   4.266  0.0657  1.0773  0.2844
 7056SOL    HW222589   2.138   4.269   4.375  0.8229 -1.4769 -0.3572
 7057SOL     OW22590   7.392   0.633   3.879 -0.0089  0.2325 -0.2294
 7057SOL    HW122591   7.430   0.583   3.951  0.1725  1.1959  0.3690
 7057SOL    HW222592   7.447   0.613   3.803  0.8475  0.5262  0.3035
 7058SOL     OW22593   3.164   3.543   3.989 -0.1220  0.3459 -0.3000
 7058SOL    HW122594   3.201   3.513   3.906  1.2634 -0.7280  0.6512
 7058SOL    HW222595   3.084   3.492   3.999 -1.0436  1.4801 -1.5963
 7059SOL     OW22596   1.815   5.547   4.127  0.3372 -0.0800 -0.2681
 7059SOL    HW122597   1.853   5.537   4.214  0.2225 -0.0625 -0.2163
 7059SOL    HW222598   1.740   5.488   4.127 -0.1026  0.4655 -0.1015
 7060SOL     OW22599   6.344   5.206   4.756 -0.0497  0.1192  0.1342
 7060SOL    HW122600   6.376   5.148   4.825 -0.2121 -1.1749 -0.8465
 7060SOL    HW222601   6.258   5.170   4.732 -0.3695  1.0532 -0.1805
 7061SOL     OW22602   1.491   5.029   5.369  0.1108 -0.3687  0.2431
 7061SOL    HW122603   1.452   4.995   5.288 -1.0770 -0.3774  0.7933
 7061SOL    HW222604   1.546   4.958   5.401 -0.3853 -0.8406  0.0742
 7062SOL     OW22605   5.507   6.727   2.330 -0.1568  0.4066  0.5059
 7062SOL    HW122606   5.558   6.694   2.404  1.2860  0.5653 -0.3668
 7062SOL    HW222607   5.573   6.750   2.264 -1.4140 -0.7566 -1.2604
 7063SOL     OW22608   5.241   6.547   1.201  0.4671  0.1318 -0.0302
 7063SOL    HW122609   5.299   6.564   1.126  1.0605 -1.6137 -0.0088
 7063SOL    HW222610   5.153   6.567   1.167  0.9618  1.9118 -0.3485
 7064SOL     OW22611   6.514   7.720   3.333 -0.2273 -0.3755  0.1822
 7064SOL    HW122612   6.438   7.676   3.296 -0.3729 -0.2567  0.3402
 7064SOL    HW222613   6.564   7.649   3.374 -0.6615 -0.3418  0.7805
 7065SOL     OW22614   6.997   4.498   5.368 -0.2021 -0.8073  0.1483
 7065SOL    HW122615   6.951   4.577   5.341 -1.2041 -1.6926 -0.8454
 7065SOL    HW222616   6.966   4.481   5.457  2.4642  1.6446  1.7185
 7066SOL     OW22617   6.354   2.371   4.478 -0.0085 -0.1370  0.0152
 7066SOL    HW122618   6.310   2.302   4.526  3.1447 -2.0396  0.4407
 7066SOL    HW222619   6.355   2.340   4.387  1.9633 -1.1141  0.3027
 7067SOL     OW22620   4.458   1.712   1.162  0.0311  0.1077 -0.2253
 7067SOL    HW122621   4.364   1.730   1.151  0.0981  0.6392  0.0458
 7067SOL    HW222622   4.479   1.750   1.247  0.3323 -0.6630  0.0446
 7068SOL     OW22623   7.150   0.214   3.728 -0.2399  0.5246  0.0564
 7068SOL    HW122624   7.163   0.303   3.761 -1.1243  0.4429  0.6789
 7068SOL    HW222625   7.232   0.170   3.746 -0.2417  0.8587  0.9707
 7069SOL     OW22626   6.923   3.512   5.125 -0.0491 -0.3724 -0.3232
 7069SOL    HW122627   6.853   3.475   5.072  1.7260 -0.4877 -2.7444
 7069SOL    HW222628   6.935   3.601   5.092  1.5149 -0.6493 -0.6021
 7070SOL     OW22629   6.889   0.011   7.217  0.4054  0.3649 -0.0250
 7070SOL    HW122630   6.973  -0.029   7.239  0.2402  1.2910  2.7364
 7070SOL    HW222631   6.824  -0.042   7.264 -0.2373  1.2998  0.1705
 7071SOL     OW22632   3.282   0.147   3.392  0.2770  0.2166  0.4362
 7071SOL    HW122633   3.230   0.067   3.392 -0.6042  0.7843  0.1049
 7071SOL    HW222634   3.336   0.140   3.314 -2.1000  1.3915 -1.4187
 7072SOL     OW22635   7.950   2.080   7.181  0.2544 -0.1338 -0.6008
 7072SOL    HW122636   7.898   2.007   7.213  0.2875 -0.3309 -0.9893
 7072SOL    HW222637   8.025   2.084   7.241 -0.4998  0.5328  0.3229
 7073SOL     OW22638   5.852   2.895   5.463 -0.0406  0.1404  0.0104
 7073SOL    HW122639   5.774   2.858   5.505 -0.6010  2.1856  0.9170
 7073SOL    HW222640   5.817   2.957   5.399  0.7813  1.6825  0.9786
 7074SOL     OW22641   7.480   4.792   7.804  0.4857 -0.1789 -0.0338
 7074SOL    HW122642   7.548   4.746   7.753  1.2703  1.7569 -0.8284
 7074SOL    HW222643   7.436   4.722   7.852  3.1617 -1.5400  0.6916
 7075SOL     OW22644   5.202   1.405   7.756 -0.0210 -0.5159 -0.2372
 7075SOL    HW122645   5.137   1.360   7.809  1.0500 -0.4318  1.2161
 7075SOL    HW222646   5.197   1.363   7.670 -0.5714 -1.9054  0.4425
 7076SOL     OW22647   4.836   6.580   1.850 -0.9082 -0.8518 -0.3372
 7076SOL    HW122648   4.773   6.564   1.779 -2.7785  0.1830  1.0095
 7076SOL    HW222649   4.829   6.503   1.906 -1.4518 -0.4660  0.1347
 7077SOL     OW22650   2.054   7.776   0.756 -0.1074 -0.5917 -0.1238
 7077SOL    HW122651   2.037   7.704   0.816  1.4195  1.7614  3.4367
 7077SOL    HW222652   2.081   7.733   0.675 -1.0755 -3.9750  1.1667
 7078SOL     OW22653   2.935   0.319   2.323  0.4075 -0.1726  0.1282
 7078SOL    HW122654   3.010   0.368   2.288  0.2134 -1.1805 -1.8458
 7078SOL    HW222655   2.859   0.365   2.286  0.1589 -0.6618  0.0312
 7079SOL     OW22656   4.916   1.070   1.860 -0.1011 -0.0864 -0.5082
 7079SOL    HW122657   4.932   0.978   1.840 -0.8677 -0.3791  0.1395
 7079SOL    HW222658   4.823   1.074   1.882 -0.1880  0.9311 -0.9662
 7080SOL     OW22659   5.130   7.009   4.539  0.3487  0.2935 -0.2229
 7080SOL    HW122660   5.076   7.088   4.543  0.6737  0.4543  2.3509
 7080SOL    HW222661   5.108   6.970   4.454  0.6661  3.4420 -1.8964
 7081SOL     OW22662   5.508   4.533   7.281 -0.1982  0.0784 -0.1927
 7081SOL    HW122663   5.415   4.532   7.300 -0.3945 -2.9124 -0.7988
 7081SOL    HW222664   5.517   4.589   7.204 -1.5315  0.0739 -0.3684
 7082SOL     OW22665   3.050   3.763   1.590  0.4256 -0.3000  0.7700
 7082SOL    HW122666   3.116   3.789   1.525 -2.4059  1.2242 -1.7635
 7082SOL    HW222667   3.020   3.845   1.627  0.9655 -1.0797  3.0601
 7083SOL     OW22668   7.841   5.880   5.658 -0.3505 -0.8252 -0.4300
 7083SOL    HW122669   7.789   5.842   5.729  0.1517  0.7284  0.8361
 7083SOL    HW222670   7.919   5.826   5.654 -1.1267 -1.9546 -0.9897
 7084SOL     OW22671   3.986   6.847   1.249  0.1407 -0.8118 -0.3439
 7084SOL    HW122672   3.921   6.862   1.180  0.1858  0.2653 -0.1822
 7084SOL    HW222673   3.934   6.831   1.328  0.0714 -0.7478 -0.3759
 7085SOL     OW22674   7.046   6.501   2.831  0.0965 -0.5664 -0.3881
 7085SOL    HW122675   7.137   6.497   2.800  0.3101 -1.6571  0.3477
 7085SOL    HW222676   7.053   6.498   2.926 -0.7429 -1.4485 -0.3403
 7086SOL     OW22677   1.928   5.839   4.128 -0.0576 -0.5655  0.6671
 7086SOL    HW122678   1.869   5.914   4.117  0.1319 -0.4212  0.6296
 7086SOL    HW222679   1.979   5.836   4.047 -0.9446 -1.5157  0.1318
 7087SOL     OW22680   0.746   4.682   4.330 -0.3209 -0.1330 -0.3701
 7087SOL    HW122681   0.823   4.728   4.363  0.9133 -2.0367 -0.4448
 7087SOL    HW222682   0.721   4.624   4.402 -1.1076 -0.2211 -0.7090
 7088SOL     OW22683   0.019   7.779   2.208  0.1668  0.4588 -0.1061
 7088SOL    HW122684   0.004   7.745   2.296 -2.1131 -0.3547 -0.7391
 7088SOL    HW222685   0.066   7.708   2.163 -1.5345 -0.5392 -0.4204
 7089SOL     OW22686   4.750   7.807   6.356 -0.0562 -0.5745 -0.1894
 7089SOL    HW122687   4.834   7.835   6.391  0.0667 -1.0446 -0.0993
 7089SOL    HW222688   4.757   7.712   6.351 -0.7783 -0.6617  0.3345
 7090SOL     OW22689   5.309   3.615   5.679  0.1235  0.2211 -0.3605
 7090SOL    HW122690   5.376   3.599   5.745 -1.7843 -0.4165  1.5162
 7090SOL    HW222691   5.317   3.541   5.618  1.7633  0.7072 -0.7893
 7091SOL     OW22692   1.012   5.585   4.922  0.4731 -0.5384  0.8611
 7091SOL    HW122693   1.040   5.615   5.009  2.3675  3.0996 -0.7801
 7091SOL    HW222694   0.969   5.661   4.883  1.4865 -1.3453 -2.0649
 7092SOL     OW22695   3.637   1.457   3.659  0.0750  0.1842  0.6594
 7092SOL    HW122696   3.689   1.378   3.645  0.3530  0.2073  1.5601
 7092SOL    HW222697   3.546   1.428   3.644  0.2656 -0.0152 -0.1967
 7093SOL     OW22698   3.327   7.496   6.597  0.0395 -0.6591  0.2612
 7093SOL    HW122699   3.367   7.456   6.674 -1.4183 -0.4093  1.1905
 7093SOL    HW222700   3.366   7.584   6.593 -0.4660 -0.3757  1.2159
 7094SOL     OW22701   7.760   6.782   6.221 -0.7049  0.4317 -0.0916
 7094SOL    HW122702   7.739   6.764   6.313 -0.5083  0.3973 -0.0539
 7094SOL    HW222703   7.835   6.726   6.202  1.5150  2.9060  0.7159
 7095SOL     OW22704   6.043   0.246   4.643 -0.1885 -0.0807 -0.0672
 7095SOL    HW122705   6.115   0.309   4.645  0.3421 -0.6897  0.4279
 7095SOL    HW222706   5.995   0.267   4.563  0.9147 -0.0768 -0.7454
 7096SOL     OW22707   1.227   5.983   1.001  0.1255  0.7589  0.1272
 7096SOL    HW122708   1.199   6.034   0.925 -0.6695 -0.3677 -0.3675
 7096SOL    HW222709   1.173   5.904   0.998  0.5850  0.3620  1.4655
 7097SOL     OW22710   3.441   7.363   5.165  0.0153  0.0087 -0.0801
 7097SOL    HW122711   3.437   7.441   5.220  1.8704 -0.6614  1.1004
 7097SOL    HW222712   3.389   7.297   5.212 -0.4801  0.1450 -0.4260
 7098SOL     OW22713   5.702   5.115   5.131 -0.1030  0.2221  0.5364
 7098SOL    HW122714   5.711   5.177   5.059  2.4945 -0.9995 -0.3312
 7098SOL    HW222715   5.739   5.033   5.097 -2.9797 -1.7470  1.7605
 7099SOL     OW22716   0.723   3.239   7.083  0.0581 -0.1942 -0.0876
 7099SOL    HW122717   0.776   3.318   7.080 -2.8043  1.8995 -0.2960
 7099SOL    HW222718   0.666   3.245   7.007 -0.5485 -2.2720  0.1291
 7100SOL     OW22719   5.024   4.025   7.453 -0.1053  0.0967  0.4229
 7100SOL    HW122720   4.950   4.083   7.471 -0.8200 -0.5342 -0.4012
 7100SOL    HW222721   5.082   4.078   7.398 -0.0023  0.5471  0.9589
 7101SOL     OW22722   5.207   6.129   4.486  0.1966 -0.3841 -0.0841
 7101SOL    HW122723   5.278   6.077   4.523  0.8760 -0.4068 -1.3416
 7101SOL    HW222724   5.135   6.067   4.474  0.5305 -0.7361 -0.3005
 7102SOL     OW22725   7.376   7.037   1.591 -0.0614  0.3260 -0.3285
 7102SOL    HW122726   7.409   6.968   1.648 -0.8199 -1.2663 -1.7517
 7102SOL    HW222727   7.290   7.060   1.627 -0.6226 -0.8106 -0.9171
 7103SOL     OW22728   0.938   1.226   3.780 -0.0399 -0.0967  0.0664
 7103SOL    HW122729   0.971   1.155   3.834  1.9688 -0.1523 -1.1297
 7103SOL    HW222730   1.000   1.232   3.707 -1.8480  0.8866 -1.4899
 7104SOL     OW22731   3.293   2.904   3.748  0.3400 -0.2310  0.7513
 7104SOL    HW122732   3.279   2.809   3.749 -1.2565 -0.0112  1.2372
 7104SOL    HW222733   3.331   2.921   3.662  3.3220 -1.6207  1.6298
 7105SOL     OW22734   0.823   4.320   1.157  0.1154  0.2261 -0.3954
 7105SOL    HW122735   0.731   4.346   1.152  0.1044  0.8106  1.6647
 7105SOL    HW222736   0.871   4.402   1.167  0.7280 -0.1418 -0.2341
 7106SOL     OW22737   7.675   3.714   7.888  0.5237  0.6557  0.5451
 7106SOL    HW122738   7.663   3.691   7.981  0.8965 -0.6032  0.3069
 7106SOL    HW222739   7.601   3.673   7.843  1.8705 -1.3066 -0.0505
 7107SOL     OW22740   0.420   7.284   2.219  0.0299 -0.0780 -0.0868
 7107SOL    HW122741   0.510   7.271   2.250  0.0841 -0.0482 -0.2327
 7107SOL    HW222742   0.383   7.346   2.282 -0.3348 -1.1676  0.8018
 7108SOL     OW22743   2.822   4.996   0.163  0.6562  0.2419 -0.1837
 7108SOL    HW122744   2.801   4.978   0.071  0.2051  1.5869 -0.3647
 7108SOL    HW222745   2.790   4.920   0.210  0.5407 -0.2895 -1.0989
 7109SOL     OW22746   5.257   3.955   3.025  0.1933  0.2784  0.1713
 7109SOL    HW122747   5.287   3.984   3.111  1.2931 -1.1280  0.3088
 7109SOL    HW222748   5.167   3.987   3.019  0.5473  1.5783  1.2584
 7110SOL     OW22749   3.692   5.276   1.533  0.0966 -0.1529 -0.0052
 7110SOL    HW122750   3.668   5.368   1.537 -0.6808 -0.3426 -0.2364
 7110SOL    HW222751   3.787   5.277   1.517  0.6589  0.6260  2.7351
 7111SOL     OW22752   0.442   2.525   1.939 -0.8829 -0.4077  0.1663
 7111SOL    HW122753   0.363   2.502   1.988 -0.8517 -1.6558 -0.3539
 7111SOL    HW222754   0.426   2.615   1.911 -1.8466 -0.4243  0.5936
 7112SOL     OW22755   6.312   3.482   7.253  0.4522  0.1107 -0.4783
 7112SOL    HW122756   6.263   3.457   7.331  0.6503 -0.7576 -0.6259
 7112SOL    HW222757   6.309   3.404   7.197  2.0902  0.0019 -0.4451
 7113SOL     OW22758   2.392   5.352   1.670 -0.0369  0.5347  0.3830
 7113SOL    HW122759   2.482   5.321   1.676 -0.3511 -0.9157 -1.5615
 7113SOL    HW222760   2.400   5.447   1.657  1.2340  0.3593 -0.2275
 7114SOL     OW22761   1.997   6.097   6.355 -0.4930 -0.2450 -0.3480
 7114SOL    HW122762   1.971   6.101   6.447  1.3594 -0.4087  0.2211
 7114SOL    HW222763   2.067   6.161   6.347 -0.1277 -0.7620 -1.4777
 7115SOL     OW22764   4.801   5.083   7.774  0.4343  0.0120 -0.2291
 7115SOL    HW122765   4.831   5.147   7.838 -3.3000 -0.2219  2.0893
 7115SOL    HW222766   4.841   5.000   7.801  1.9304  0.5507 -0.6766
 7116SOL     OW22767   6.390   5.531   4.109 -0.7420 -0.0793  0.0180
 7116SOL    HW122768   6.323   5.464   4.120 -1.4198  0.1939 -2.0005
 7116SOL    HW222769   6.473   5.484   4.117 -1.2045 -1.2644 -1.6446
 7117SOL     OW22770   5.196   3.140   4.701  0.3465 -0.0730  0.4721
 7117SOL    HW122771   5.124   3.085   4.672  1.4397 -0.7178 -1.2016
 7117SOL    HW222772   5.170   3.171   4.788 -0.3385 -3.1948  1.5112
 7118SOL     OW22773   4.258   7.273   7.522  0.0867  0.4715 -0.0969
 7118SOL    HW122774   4.300   7.257   7.438 -1.0928  1.6672 -0.9616
 7118SOL    HW222775   4.271   7.192   7.571  1.7990  0.1623 -0.9796
 7119SOL     OW22776   1.027   4.801   7.660 -0.3984  0.2071  0.2697
 7119SOL    HW122777   1.103   4.797   7.602 -0.1424 -1.1906  0.6665
 7119SOL    HW222778   1.028   4.890   7.695 -0.4452  1.0276 -1.6849
 7120SOL     OW22779   1.213   1.816   4.678  0.4395 -0.3461  0.0776
 7120SOL    HW122780   1.123   1.784   4.678  0.1899  0.2238  2.0106
 7120SOL    HW222781   1.267   1.737   4.682  0.0514 -0.6893 -1.0303
 7121SOL     OW22782   7.369   6.349   5.108 -0.5336  0.6445  0.2096
 7121SOL    HW122783   7.456   6.338   5.148 -0.7484  0.2130  0.5709
 7121SOL    HW222784   7.382   6.416   5.041  0.4431 -0.5036 -0.8044
 7122SOL     OW22785   2.831   2.428   3.074 -0.1760 -0.2153  0.2761
 7122SOL    HW122786   2.888   2.388   3.140 -2.0102 -1.9615  0.8702
 7122SOL    HW222787   2.784   2.497   3.122  0.5685  0.4625  0.0568
 7123SOL     OW22788   5.259   0.973   6.122  0.4482  0.5525  0.0192
 7123SOL    HW122789   5.239   0.983   6.029  2.0027  1.2992 -0.2731
 7123SOL    HW222790   5.264   1.063   6.155  2.4418  0.4237  0.2073
 7124SOL     OW22791   0.957   4.834   4.375 -1.1802 -0.6980 -0.3366
 7124SOL    HW122792   0.947   4.905   4.439 -1.5932 -0.8029 -0.2839
 7124SOL    HW222793   0.946   4.877   4.290 -3.1344 -0.9637 -0.2593
 7125SOL     OW22794   1.445   3.802   1.783  0.4674 -0.2353  0.2360
 7125SOL    HW122795   1.390   3.729   1.810 -1.2879  1.4155  1.4192
 7125SOL    HW222796   1.431   3.810   1.689  0.8898 -1.5187  0.0384
 7126SOL     OW22797   5.365   3.435   5.487 -0.7085  0.3184 -0.2955
 7126SOL    HW122798   5.332   3.392   5.408  0.3357 -0.4356 -0.3458
 7126SOL    HW222799   5.399   3.519   5.457  1.4148 -0.7379 -1.0130
 7127SOL     OW22800   1.000   3.981   3.450 -1.0427 -0.0729  0.1287
 7127SOL    HW122801   0.952   3.933   3.382 -0.8342  0.2061 -0.2199
 7127SOL    HW222802   1.056   4.042   3.401  0.0424 -0.7438  0.5076
 7128SOL     OW22803   6.775   7.019   1.907  0.3756  0.2253  0.0706
 7128SOL    HW122804   6.764   7.114   1.899  2.7308  0.4427 -1.6262
 7128SOL    HW222805   6.802   6.991   1.820  1.9302 -1.6526  1.0839
 7129SOL     OW22806   5.744   0.877   1.559 -0.0152 -0.0314 -0.2505
 7129SOL    HW122807   5.663   0.834   1.587  0.6366 -1.1414  0.0070
 7129SOL    HW222808   5.731   0.897   1.467 -1.4896  1.9995  0.3269
 7130SOL     OW22809   5.050   6.280   7.378  0.5266  0.1596  0.0265
 7130SOL    HW122810   4.980   6.337   7.411 -0.0044 -0.4206 -0.0925
 7130SOL    HW222811   5.085   6.327   7.302  1.0193  0.9801  0.7455
 7131SOL     OW22812   6.473   0.918   2.913 -0.7289  0.2235  0.1081
 7131SOL    HW122813   6.565   0.913   2.886  1.0336  0.5324  5.0885
 7131SOL    HW222814   6.449   0.828   2.933 -1.4201  0.2149 -0.6947
 7132SOL     OW22815   0.272   2.889   3.222  0.0518  0.3139 -0.1116
 7132SOL    HW122816   0.320   2.832   3.282 -1.8537 -0.7107  0.5171
 7132SOL    HW222817   0.247   2.965   3.275  1.3348  1.0891 -0.5685
 7133SOL     OW22818   4.658   0.814   2.143 -0.1227  0.2120 -0.2451
 7133SOL    HW122819   4.725   0.821   2.211  1.4413  0.2763 -1.7481
 7133SOL    HW222820   4.686   0.742   2.088 -1.1462  0.4223 -1.0717
 7134SOL     OW22821   7.075   3.965   5.491 -0.2060 -0.0934  0.3656
 7134SOL    HW122822   7.139   3.960   5.419  0.2842 -1.0392  0.8456
 7134SOL    HW222823   7.001   4.012   5.453  0.3088  0.0077 -0.5628
 7135SOL     OW22824   5.932   7.577   3.382  0.2420 -0.5775  0.3299
 7135SOL    HW122825   5.837   7.592   3.382 -0.0687 -2.3230  0.2671
 7135SOL    HW222826   5.946   7.513   3.452  1.2794 -0.8546 -0.1159
 7136SOL     OW22827   0.138   6.345   4.989  0.1584  0.0411  0.0740
 7136SOL    HW122828   0.233   6.341   4.979  0.3703  1.4509  1.1609
 7136SOL    HW222829   0.125   6.369   5.081 -1.2447  0.2544 -0.1632
 7137SOL     OW22830   3.400   6.364   5.582 -0.6138 -0.9274 -0.8940
 7137SOL    HW122831   3.437   6.449   5.559 -1.5256 -0.4317 -0.5885
 7137SOL    HW222832   3.330   6.384   5.644  0.9397 -2.1186  1.3929
 7138SOL     OW22833   4.649   2.184   4.609 -0.2711 -0.5618 -0.0799
 7138SOL    HW122834   4.611   2.245   4.546 -0.2145  0.0044  0.4249
 7138SOL    HW222835   4.720   2.141   4.561  0.7484  0.9401  0.0083
 7139SOL     OW22836   8.028   7.667   3.880  0.3646  0.8206 -0.6868
 7139SOL    HW122837   8.101   7.681   3.940  1.4987  2.3479 -2.3419
 7139SOL    HW222838   8.059   7.600   3.819 -0.1401  0.5109 -0.6146
 7140SOL     OW22839   4.429   0.414   5.621  0.3414  0.7706  0.2166
 7140SOL    HW122840   4.421   0.485   5.685 -1.9250  1.4373 -0.6941
 7140SOL    HW222841   4.449   0.458   5.539  0.0843  0.2338 -0.1378
 7141SOL     OW22842   5.724   6.263   3.847  0.0863 -0.0464  0.1787
 7141SOL    HW122843   5.743   6.301   3.761 -2.3675 -0.2614 -0.5445
 7141SOL    HW222844   5.781   6.311   3.908  1.9987 -0.0134 -1.5641
 7142SOL     OW22845   4.393   1.761   1.461  0.4258  0.4127 -0.1128
 7142SOL    HW122846   4.428   1.843   1.495 -0.0562  0.4820  0.2283
 7142SOL    HW222847   4.310   1.785   1.421  0.7484  0.2476 -0.9069
 7143SOL     OW22848   1.207   1.254   0.171 -0.5623 -0.1025 -0.1363
 7143SOL    HW122849   1.240   1.199   0.241 -2.5404 -0.6164  0.4773
 7143SOL    HW222850   1.126   1.292   0.206 -1.3444  0.0395 -1.9391
 7144SOL     OW22851   3.497   7.187   0.326  0.0133 -0.6313 -0.1971
 7144SOL    HW122852   3.448   7.121   0.375 -1.5846 -0.6153 -1.7066
 7144SOL    HW222853   3.442   7.265   0.327  0.1261 -0.5074 -1.6505
 7145SOL     OW22854   4.342   2.388   3.121  0.1829 -0.3485  0.2891
 7145SOL    HW122855   4.393   2.425   3.049  0.9774  0.3723  1.1913
 7145SOL    HW222856   4.279   2.456   3.144  0.8076 -0.0339  1.1245
 7146SOL     OW22857   2.876   4.578   7.704  0.8892 -0.4445 -0.1815
 7146SOL    HW122858   2.789   4.566   7.665  1.6395 -1.6203 -1.5648
 7146SOL    HW222859   2.921   4.638   7.645  0.9871  0.3109  0.6334
 7147SOL     OW22860   2.332   5.961   3.938  0.4949 -0.1351  0.0139
 7147SOL    HW122861   2.236   5.954   3.937  0.1941  2.7996 -0.2686
 7147SOL    HW222862   2.362   5.880   3.895 -1.9064 -0.5001 -1.1826
 7148SOL     OW22863   7.269   6.303   6.771  0.2769 -0.2570 -0.0381
 7148SOL    HW122864   7.174   6.300   6.758  0.1317  2.0058  0.0209
 7148SOL    HW222865   7.304   6.320   6.684  0.5806 -0.5663  0.0257
 7149SOL     OW22866   7.605   6.772   6.005  0.3245 -0.1919  0.0977
 7149SOL    HW122867   7.667   6.771   6.077  0.6753 -1.4718 -0.1872
 7149SOL    HW222868   7.563   6.686   6.009 -0.1807 -0.0017 -0.7725
 7150SOL     OW22869   6.094   3.289   6.327 -0.5997  0.1480  0.1468
 7150SOL    HW122870   6.130   3.267   6.413 -0.0222 -0.3707 -0.2218
 7150SOL    HW222871   6.003   3.314   6.345 -0.0090  1.7958  1.1549
 7151SOL     OW22872   4.397   0.378   1.513  0.2289 -0.2588  0.1287
 7151SOL    HW122873   4.374   0.288   1.491 -1.0016  0.1987 -0.5280
 7151SOL    HW222874   4.313   0.424   1.516  0.7365  0.6421  1.5233
 7152SOL     OW22875   0.506   5.877   5.045  0.3602 -0.6541  0.3658
 7152SOL    HW122876   0.540   5.857   4.958 -2.9649  0.9781 -1.5283
 7152SOL    HW222877   0.509   5.793   5.092  2.4991 -1.5083 -1.1735
 7153SOL     OW22878   4.105   0.432   4.312  0.1094 -0.3571  0.1015
 7153SOL    HW122879   4.053   0.491   4.367  0.4961 -0.4274  0.5443
 7153SOL    HW222880   4.126   0.358   4.370  1.8668  0.2970  0.3577
 7154SOL     OW22881   0.258   5.739   5.261 -0.0133 -0.0129 -0.2076
 7154SOL    HW122882   0.212   5.668   5.305  1.3332 -0.7162  0.1142
 7154SOL    HW222883   0.290   5.795   5.332  0.2903  0.0518 -0.3936
 7155SOL     OW22884   3.379   1.835   4.173 -0.0839  0.5204 -0.3921
 7155SOL    HW122885   3.404   1.743   4.178 -2.5686 -0.1843  0.6820
 7155SOL    HW222886   3.292   1.834   4.134 -0.5402  2.3298  0.4646
 7156SOL     OW22887   1.698   1.975   2.180  0.3127 -0.2485 -0.1831
 7156SOL    HW122888   1.767   1.912   2.158  1.2891  1.1062 -1.1835
 7156SOL    HW222889   1.715   1.998   2.271  1.8686  0.8213 -0.6934
 7157SOL     OW22890   2.530   4.034   4.403 -0.2001  0.3033 -0.4871
 7157SOL    HW122891   2.475   4.029   4.325 -0.3314  0.5615 -0.4115
 7157SOL    HW222892   2.474   4.004   4.474 -0.9259  2.4912 -0.0643
 7158SOL     OW22893   3.515   7.386   7.205 -0.1813  0.3477  0.3731
 7158SOL    HW122894   3.564   7.372   7.124  1.5779 -0.3033  1.5024
 7158SOL    HW222895   3.430   7.344   7.188 -0.1390  0.8635 -1.3728
 7159SOL     OW22896   3.668   7.663   6.776 -0.2820  0.1496  0.3411
 7159SOL    HW122897   3.642   7.741   6.728 -0.3184 -0.3927 -0.5411
 7159SOL    HW222898   3.592   7.643   6.832 -0.6262  0.2295 -0.0960
 7160SOL     OW22899   7.513   5.479   5.896 -0.2465 -0.3252  0.4951
 7160SOL    HW122900   7.577   5.412   5.870 -0.2938  0.8582 -3.2413
 7160SOL    HW222901   7.428   5.441   5.871 -0.5586 -0.0468  1.1228
 7161SOL     OW22902   6.028   2.909   6.788  0.1304  0.2797  0.1827
 7161SOL    HW122903   6.008   2.816   6.800  0.0205  0.3974  0.9469
 7161SOL    HW222904   5.949   2.955   6.817  0.1277  0.6090 -0.3348
 7162SOL     OW22905   4.327   1.638   2.574 -0.1851  0.4393  0.5097
 7162SOL    HW122906   4.386   1.599   2.639  0.6733  0.9173  0.0362
 7162SOL    HW222907   4.274   1.565   2.543  1.7390 -0.5271 -0.7437
 7163SOL     OW22908   3.446   1.922   0.584  0.4311  0.4586  0.1513
 7163SOL    HW122909   3.358   1.884   0.581  1.2928 -1.6079 -0.2851
 7163SOL    HW222910   3.439   2.003   0.534 -1.6541  1.3246  1.7092
 7164SOL     OW22911   3.481   3.361   4.578  0.5404 -0.3808 -0.7309
 7164SOL    HW122912   3.477   3.411   4.496  0.5002 -0.9294 -1.0663
 7164SOL    HW222913   3.555   3.302   4.565 -0.4338 -1.5762 -1.0067
 7165SOL     OW22914   6.490   5.301   4.564  0.1022 -0.1958 -0.5446
 7165SOL    HW122915   6.433   5.258   4.628  0.2191  0.0075 -0.3043
 7165SOL    HW222916   6.434   5.317   4.488 -0.4477  1.0000  0.0948
 7166SOL     OW22917   0.510   1.029   7.283 -0.0377 -0.3781 -0.7383
 7166SOL    HW122918   0.476   1.084   7.213  0.0102  1.7760  0.8197
 7166SOL    HW222919   0.603   1.052   7.288  0.2212 -1.3982 -0.7406
 7167SOL     OW22920   4.133   6.889   0.009 -0.0322 -0.8438  0.0047
 7167SOL    HW122921   4.153   6.858  -0.079 -0.2858  1.2279 -0.8363
 7167SOL    HW222922   4.168   6.978   0.012  0.3872 -1.0143  2.1702
 7168SOL     OW22923   7.118   7.892   1.361 -0.1725 -0.0078 -0.3372
 7168SOL    HW122924   7.026   7.868   1.348  0.4086 -1.3674 -2.3038
 7168SOL    HW222925   7.157   7.889   1.274  1.3937  2.2845  0.1738
 7169SOL     OW22926   6.878   5.226   6.332 -0.0539 -0.1681  0.0024
 7169SOL    HW122927   6.951   5.239   6.272  0.1986 -2.6100 -0.3104
 7169SOL    HW222928   6.876   5.306   6.386  0.8426  1.2938 -2.0129
 7170SOL     OW22929   7.091   4.680   0.758 -0.0850 -0.0182  0.2727
 7170SOL    HW122930   7.149   4.744   0.800 -1.0996  1.1957 -0.1179
 7170SOL    HW222931   7.128   4.668   0.671  1.3197 -1.6184  1.0144
 7171SOL     OW22932   0.889   5.253   1.833 -0.3572  0.0766  0.4477
 7171SOL    HW122933   0.921   5.332   1.789 -0.5397 -0.0923  0.0133
 7171SOL    HW222934   0.867   5.193   1.762 -3.4927  0.8745  0.6108
 7172SOL     OW22935   1.734   6.672   0.856  0.1654  0.1220 -0.5716
 7172SOL    HW122936   1.685   6.593   0.880  1.6904 -0.4291  0.9710
 7172SOL    HW222937   1.669   6.742   0.856 -0.7099 -0.6415  1.0404
 7173SOL     OW22938   5.684   3.552   5.252  0.3157  0.4276  0.1132
 7173SOL    HW122939   5.770   3.536   5.290  0.1395  0.3259  0.4745
 7173SOL    HW222940   5.702   3.596   5.168  0.7189  0.3197  0.1422
 7174SOL     OW22941   6.021   0.959   7.482 -0.1937  0.0486  0.1844
 7174SOL    HW122942   6.088   1.011   7.527  1.2165 -0.8631 -0.7943
 7174SOL    HW222943   5.942   0.971   7.535  0.0570  3.1329  0.0136
 7175SOL     OW22944   1.143   3.907   7.431 -0.1035 -0.2360  0.0887
 7175SOL    HW122945   1.235   3.917   7.409  0.5850 -0.0165  2.7012
 7175SOL    HW222946   1.114   3.829   7.383  1.6580 -0.7630 -0.1592
 7176SOL     OW22947   1.111   6.064   5.701  0.3991 -0.5443  0.4605
 7176SOL    HW122948   1.035   6.010   5.682  0.0434  0.6952 -2.0103
 7176SOL    HW222949   1.185   6.005   5.696 -0.2080 -1.3663  0.9010
 7177SOL     OW22950   0.797   3.497   7.169  0.2736  0.4983  0.3786
 7177SOL    HW122951   0.879   3.457   7.198 -0.2212 -0.8670 -0.0399
 7177SOL    HW222952   0.761   3.538   7.247  0.5259 -0.3576  0.9537
 7178SOL     OW22953   6.113   0.843   7.810  0.2128  0.2405 -0.1196
 7178SOL    HW122954   6.044   0.813   7.869  0.9177 -0.0984  0.5519
 7178SOL    HW222955   6.129   0.769   7.751  0.4689  0.0638  0.1663
 7179SOL     OW22956   1.175   5.658   6.514 -0.1790 -0.2652  0.3764
 7179SOL    HW122957   1.092   5.678   6.556  0.1463 -0.1112  0.9615
 7179SOL    HW222958   1.152   5.635   6.424 -1.0041 -1.6907  0.9264
 7180SOL     OW22959   3.922   1.137   1.442  0.4479 -0.2655  0.5074
 7180SOL    HW122960   3.850   1.200   1.446  1.6236  1.3478 -1.7904
 7180SOL    HW222961   3.892   1.069   1.382  0.9145  0.5456 -0.6606
 7181SOL     OW22962   1.689   2.146   0.172 -0.1428 -0.2782  0.7045
 7181SOL    HW122963   1.734   2.070   0.210  0.9721 -0.0369 -0.1095
 7181SOL    HW222964   1.739   2.221   0.202  0.9171 -0.0983 -1.4135
 7182SOL     OW22965   1.200   6.777   2.325 -0.4048 -0.2854  0.4200
 7182SOL    HW122966   1.122   6.730   2.354 -0.9419  0.4243  0.1347
 7182SOL    HW222967   1.229   6.728   2.248 -2.5016  1.3048 -1.5249
 7183SOL     OW22968   0.175   6.919   1.291 -0.3721  0.0807  1.0676
 7183SOL    HW122969   0.146   6.982   1.225  1.8476  1.0688  0.9635
 7183SOL    HW222970   0.109   6.849   1.287  0.1955 -0.4811 -3.0141
 7184SOL     OW22971   6.985   1.804   4.365 -0.4529  0.1768  0.1019
 7184SOL    HW122972   7.031   1.721   4.354 -1.4024 -0.7021  2.3617
 7184SOL    HW222973   6.926   1.808   4.289 -0.3791 -1.2075 -0.0610
 7185SOL     OW22974   1.418   6.764   6.446 -0.3139  0.6802  0.0754
 7185SOL    HW122975   1.428   6.697   6.378  0.7458 -2.9077  3.4215
 7185SOL    HW222976   1.332   6.749   6.483 -0.4487  1.8850  0.3096
 7186SOL     OW22977   0.576   3.509   5.748  0.0142  0.3261  0.0228
 7186SOL    HW122978   0.669   3.530   5.750 -0.0044  0.3409  1.3959
 7186SOL    HW222979   0.533   3.593   5.728  0.2130  0.6393  0.8843
 7187SOL     OW22980   8.007   3.489   0.193 -0.3824 -0.0687  0.3413
 7187SOL    HW122981   7.946   3.435   0.143  0.1339  0.4930 -0.9276
 7187SOL    HW222982   8.073   3.428   0.226 -1.1753 -0.5608  1.0399
 7188SOL     OW22983   7.914   2.140   1.311  0.0005 -0.2374  0.0015
 7188SOL    HW122984   7.885   2.107   1.226  0.7666 -0.0413 -0.3470
 7188SOL    HW222985   8.007   2.120   1.315 -0.2427 -1.2691  1.2897
 7189SOL     OW22986   4.554   6.852   7.525  0.4530 -0.1368 -0.2229
 7189SOL    HW122987   4.483   6.850   7.589 -1.4900 -0.6047 -2.2675
 7189SOL    HW222988   4.576   6.760   7.510 -0.7353 -0.2060 -1.8387
 7190SOL     OW22989   2.067   7.200   8.048 -0.2664  0.4597 -0.4213
 7190SOL    HW122990   2.080   7.231   8.137 -1.5123  1.7371 -0.6546
 7190SOL    HW222991   2.044   7.108   8.057  2.4958 -0.2497  0.3544
 7191SOL     OW22992   3.655   2.246   6.144 -0.3259  0.2279  0.2379
 7191SOL    HW122993   3.694   2.160   6.160 -0.0467 -0.0349 -1.7091
 7191SOL    HW222994   3.710   2.307   6.193 -0.7935 -0.6978  2.0242
 7192SOL     OW22995   4.604   1.908   7.291  0.0553  0.1498 -0.0100
 7192SOL    HW122996   4.635   1.939   7.206  0.5231  1.1807  0.5273
 7192SOL    HW222997   4.540   1.974   7.319  1.4261  0.9454  1.3749
 7193SOL     OW22998   5.149   7.495   1.948  0.3042  0.1356 -0.3368
 7193SOL    HW122999   5.185   7.541   2.024 -3.0392 -0.7502  2.0618
 7193SOL    HW223000   5.176   7.404   1.962 -1.0039 -0.1740  0.3512
 7194SOL     OW23001   2.840   2.940   5.040 -0.0414  0.0422 -0.4188
 7194SOL    HW123002   2.833   3.027   5.079 -0.4531  0.3637 -1.1855
 7194SOL    HW223003   2.900   2.951   4.966 -1.7050  0.1705 -1.8054
 7195SOL     OW23004   4.936   7.806   7.670 -0.3841  0.2023  0.4823
 7195SOL    HW123005   4.923   7.899   7.654  0.4106 -0.2332 -3.7472
 7195SOL    HW223006   5.013   7.801   7.727 -0.3044  2.0980  0.5926
 7196SOL     OW23007   4.566   5.861   7.987  0.8504  0.5933 -0.2789
 7196SOL    HW123008   4.480   5.820   7.978  1.0735 -0.0839  0.5007
 7196SOL    HW223009   4.559   5.943   7.939  0.6769 -0.7768 -2.7878
 7197SOL     OW23010   3.174   2.333   3.240  0.1145  0.2661  0.5648
 7197SOL    HW123011   3.119   2.260   3.270 -0.7630  0.4161 -0.6170
 7197SOL    HW223012   3.154   2.404   3.300 -1.7033  0.5988 -0.3747
 7198SOL     OW23013   5.496   6.300   0.352 -0.4131 -0.2791  0.0041
 7198SOL    HW123014   5.585   6.287   0.384 -0.6343  0.3055  0.9028
 7198SOL    HW223015   5.453   6.215   0.365  0.6110 -1.2988 -2.6032
 7199SOL     OW23016   1.125   2.739   0.956 -0.0492  0.2276  0.4937
 7199SOL    HW123017   1.052   2.772   0.904 -0.8743 -1.3760  0.5742
 7199SOL    HW223018   1.085   2.711   1.039  0.5647 -1.0551  0.3791
 7200SOL     OW23019   0.410   0.090   4.723 -0.1724  0.2007 -0.7001
 7200SOL    HW123020   0.414   0.101   4.818 -1.1015  0.3252 -0.6688
 7200SOL    HW223021   0.396  -0.004   4.711 -1.3270  0.3509 -0.6572
 7201SOL     OW23022   3.874   7.934   5.723  0.0675 -0.3936 -0.4581
 7201SOL    HW123023   3.819   7.863   5.689 -0.5987  0.0416 -0.3243
 7201SOL    HW223024   3.924   7.963   5.647  0.6872 -1.3067 -0.4076
 7202SOL     OW23025   6.189   0.839   3.595 -0.2650 -0.1367  0.3330
 7202SOL    HW123026   6.216   0.894   3.669 -0.1350  0.6279 -0.2658
 7202SOL    HW223027   6.098   0.866   3.578  0.3443  1.2087 -1.0815
 7203SOL     OW23028   1.778   3.715   7.997  0.0533  0.4762  0.0564
 7203SOL    HW123029   1.790   3.624   8.024  1.0034 -0.1258 -2.2217
 7203SOL    HW223030   1.810   3.766   8.072 -2.1002 -0.9406  2.1074
 7204SOL     OW23031   3.233   1.113   5.482 -0.5109 -0.3228  0.5810
 7204SOL    HW123032   3.212   1.037   5.429 -0.8211 -0.4810  0.9238
 7204SOL    HW223033   3.154   1.168   5.477 -1.3054 -1.2041  2.3827
 7205SOL     OW23034   5.136   7.618   5.946  0.2653 -0.5394 -0.2623
 7205SOL    HW123035   5.096   7.685   5.891  0.7846  0.3156  0.3673
 7205SOL    HW223036   5.137   7.657   6.034  1.2195 -1.0819 -0.0123
 7206SOL     OW23037   3.470   3.324   3.442 -0.3519 -0.2826  0.0752
 7206SOL    HW123038   3.384   3.362   3.423 -0.1280  0.2869  0.1642
 7206SOL    HW223039   3.498   3.285   3.360  0.3195  1.5761 -0.6454
 7207SOL     OW23040   7.882   7.767   1.296  0.3679  0.1291 -0.0619
 7207SOL    HW123041   7.970   7.770   1.257 -0.2608 -1.2854 -1.7175
 7207SOL    HW223042   7.888   7.698   1.362  0.7169  0.6426  0.4531
 7208SOL     OW23043   1.928   3.179   6.696  0.5539  0.0025 -0.4056
 7208SOL    HW123044   1.859   3.125   6.659  0.2317 -0.2326  0.5241
 7208SOL    HW223045   1.897   3.269   6.684 -0.9209 -0.1371  1.8523
 7209SOL     OW23046   7.467   7.142   7.596  0.8731  0.5032 -0.4337
 7209SOL    HW123047   7.462   7.047   7.582 -0.8199  0.6732 -1.2341
 7209SOL    HW223048   7.552   7.167   7.558  0.8838 -0.5450 -1.1409
 7210SOL     OW23049   6.696   7.819   7.289 -1.0468 -0.2475  0.3255
 7210SOL    HW123050   6.719   7.728   7.270 -1.2847 -0.2663  0.1269
 7210SOL    HW223051   6.663   7.854   7.206 -2.2248 -0.3698  0.7153
 7211SOL     OW23052   0.452   2.066   5.314  0.1428  0.2802  0.0083
 7211SOL    HW123053   0.526   2.006   5.317 -1.4152 -1.8294 -1.0117
 7211SOL    HW223054   0.417   2.065   5.403 -0.9287 -1.8304 -0.3828
 7212SOL     OW23055   1.635   3.803   2.745 -0.1589 -0.8014 -0.0556
 7212SOL    HW123056   1.639   3.757   2.829  0.1911  0.5766  0.7257
 7212SOL    HW223057   1.701   3.760   2.691 -1.1746 -2.4440 -0.0340
 7213SOL     OW23058   2.935   1.500   2.605 -0.4318 -0.2373  0.2314
 7213SOL    HW123059   2.932   1.453   2.688  0.5184 -2.0952 -0.7410
 7213SOL    HW223060   2.972   1.585   2.627  1.6743 -1.3992  1.4279
 7214SOL     OW23061   6.882   7.793   5.279 -0.5308  0.6769  0.0513
 7214SOL    HW123062   6.957   7.852   5.288 -0.7640  1.0875 -0.6457
 7214SOL    HW223063   6.899   7.746   5.198  2.2281 -3.9313  2.8213
 7215SOL     OW23064   4.027   1.718   0.586 -0.2603 -0.0850  0.3683
 7215SOL    HW123065   4.117   1.705   0.558  0.4328  0.8160  2.0169
 7215SOL    HW223066   4.023   1.811   0.610 -1.6522 -0.0945  0.2758
 7216SOL     OW23067   6.409   6.300   3.474  0.5666 -0.1370 -0.4986
 7216SOL    HW123068   6.400   6.205   3.484 -0.7248  0.0396  0.3001
 7216SOL    HW223069   6.345   6.323   3.407  0.1602  0.2720  0.0135
 7217SOL     OW23070   0.814   2.095   7.294 -0.3690 -0.1880  0.6026
 7217SOL    HW123071   0.805   2.013   7.342 -0.7023  0.8863  2.5165
 7217SOL    HW223072   0.741   2.094   7.232  0.2143 -1.7392 -0.1091
 7218SOL     OW23073   2.640   1.124   7.895  0.4511  0.0959  0.4057
 7218SOL    HW123074   2.713   1.136   7.835 -0.2068 -0.9151 -0.6238
 7218SOL    HW223075   2.583   1.200   7.879  0.4047 -0.0362 -0.0561
 7219SOL     OW23076   6.223   7.706   0.268  0.0773 -0.3870  0.2136
 7219SOL    HW123077   6.302   7.663   0.297  0.6496  1.0778  0.9254
 7219SOL    HW223078   6.152   7.650   0.298  0.6155  0.8184  4.3146
 7220SOL     OW23079   5.073   7.848   3.625  0.1614  0.4112 -0.4577
 7220SOL    HW123080   5.059   7.803   3.708 -1.8690  1.4024 -0.2090
 7220SOL    HW223081   5.117   7.783   3.570 -3.2096 -2.2728 -0.3435
 7221SOL     OW23082   1.009   7.027   1.658 -0.1900  0.2499  0.1506
 7221SOL    HW123083   1.006   7.102   1.718  0.3333 -0.5432  1.2118
 7221SOL    HW223084   0.927   7.031   1.610 -0.3975  1.2073  0.5637
 7222SOL     OW23085   4.408   7.388   3.024  0.1500 -0.0453 -0.1811
 7222SOL    HW123086   4.373   7.328   2.959  0.4279  0.3511 -0.6962
 7222SOL    HW223087   4.400   7.340   3.107  0.0821 -0.6665 -0.5422
 7223SOL     OW23088   0.529   4.680   1.440  0.3573 -0.0153 -0.2853
 7223SOL    HW123089   0.500   4.601   1.486  1.6780  0.1015  0.8016
 7223SOL    HW223090   0.448   4.727   1.421 -0.4100 -1.3459 -0.4391
 7224SOL     OW23091   1.130   7.847   7.883 -0.9481  0.1494  0.2250
 7224SOL    HW123092   1.121   7.820   7.974 -0.8126  0.6843  0.3949
 7224SOL    HW223093   1.205   7.906   7.882 -1.3357  0.6475 -0.1207
 7225SOL     OW23094   6.183   7.857   7.062  0.2021  0.4479  0.2145
 7225SOL    HW123095   6.093   7.828   7.059  0.3587  0.0054 -0.2707
 7225SOL    HW223096   6.219   7.817   7.141 -0.1568  1.0344  0.6881
 7226SOL     OW23097   0.041   5.353   7.855 -0.1330 -0.4367 -0.0878
 7226SOL    HW123098  -0.003   5.277   7.892 -0.1332 -0.1108  0.6207
 7226SOL    HW223099   0.134   5.335   7.866 -0.1129 -0.7279 -0.7457
 7227SOL     OW23100   4.862   5.185   3.937 -0.9695 -0.5241  0.3397
 7227SOL    HW123101   4.786   5.237   3.912 -0.3219 -0.1724 -0.9740
 7227SOL    HW223102   4.860   5.109   3.880  0.1497 -0.0485 -0.3826
 7228SOL     OW23103   6.944   4.042   2.688 -0.1837  0.0983 -0.4969
 7228SOL    HW123104   6.997   3.984   2.633 -0.5798 -0.2290 -0.5308
 7228SOL    HW223105   6.878   3.985   2.727  1.1130 -0.0543  1.7101
 7229SOL     OW23106   5.579   2.232   0.142  0.0317 -0.3917  0.0363
 7229SOL    HW123107   5.613   2.209   0.055 -1.2277  3.2377 -1.5799
 7229SOL    HW223108   5.484   2.232   0.132 -0.1145  1.1764  1.0534
 7230SOL     OW23109   3.281   7.984   4.515  0.2260  0.2869 -0.3617
 7230SOL    HW123110   3.223   7.974   4.591 -1.2574  0.9589 -1.3669
 7230SOL    HW223111   3.309   8.075   4.519  1.0350  0.0301 -0.0220
 7231SOL     OW23112   1.989   4.477   2.216  0.3556  0.3795  0.5039
 7231SOL    HW123113   1.907   4.511   2.253 -0.7527  0.0204 -1.4802
 7231SOL    HW223114   1.973   4.384   2.203  0.1491  0.6884 -2.0128
 7232SOL     OW23115   1.911   4.204   5.334  0.3044  0.1872 -0.4370
 7232SOL    HW123116   1.857   4.195   5.256  0.9775 -1.2165 -0.7811
 7232SOL    HW223117   2.000   4.191   5.303  0.5106 -1.3184  0.6693
 7233SOL     OW23118   3.634   5.515   1.955 -0.1890 -0.1274 -0.7079
 7233SOL    HW123119   3.564   5.556   2.006 -1.6440 -0.9312 -1.9663
 7233SOL    HW223120   3.656   5.580   1.888 -1.0617 -0.5649 -1.4441
 7234SOL     OW23121   4.364   1.056   1.264  0.3795  0.1136  0.6396
 7234SOL    HW123122   4.282   1.091   1.300 -0.0787  0.9737 -1.1630
 7234SOL    HW223123   4.408   1.131   1.225  1.1073 -0.6809 -0.1163
 7235SOL     OW23124   2.767   7.456   2.330  0.3811  0.4255  0.2801
 7235SOL    HW123125   2.719   7.524   2.282  0.7893 -0.3455 -1.2776
 7235SOL    HW223126   2.850   7.497   2.353  0.8324  0.3047 -1.1070
 7236SOL     OW23127   1.419   4.368   3.735  0.0799  0.3249  0.1652
 7236SOL    HW123128   1.464   4.297   3.689 -0.3184 -0.0675  0.3689
 7236SOL    HW223129   1.377   4.325   3.810 -1.6486  0.4531 -0.6735
 7237SOL     OW23130   6.789   4.754   1.684 -0.2083 -0.3414 -0.6837
 7237SOL    HW123131   6.879   4.759   1.716 -0.2204 -1.1254 -0.5139
 7237SOL    HW223132   6.782   4.823   1.619  0.8351 -0.9810 -1.4898
 7238SOL     OW23133   7.863   1.084   1.117 -0.2400  0.0835  0.1789
 7238SOL    HW123134   7.958   1.080   1.111 -0.3117 -0.0208 -1.0239
 7238SOL    HW223135   7.834   1.113   1.031 -1.2853  0.4456  0.6356
 7239SOL     OW23136   7.083   4.075   3.702 -0.0443 -0.0184  0.1381
 7239SOL    HW123137   7.067   4.169   3.691  0.3558 -0.1053 -1.4743
 7239SOL    HW223138   6.995   4.037   3.712 -0.5551  0.1824 -2.6517
 7240SOL     OW23139   6.928   3.254   6.483  0.0581  0.1469  0.2718
 7240SOL    HW123140   6.875   3.213   6.551  1.1828  0.2591  1.2561
 7240SOL    HW223141   6.877   3.329   6.454 -1.5220 -1.2284 -0.7477
 7241SOL     OW23142   4.160   1.075   5.923 -0.2033  0.2186 -0.0033
 7241SOL    HW123143   4.157   1.157   5.875  0.3546 -0.0084 -0.4300
 7241SOL    HW223144   4.072   1.038   5.913  0.2523 -0.4510 -1.9575
 7242SOL     OW23145   1.623   1.302   6.982 -0.1517 -0.8306 -0.1659
 7242SOL    HW123146   1.584   1.375   6.935 -0.3527 -0.2341  0.9022
 7242SOL    HW223147   1.646   1.338   7.068 -2.2601 -2.5401  1.2021
 7243SOL     OW23148   1.853   2.350   6.400  0.4879 -0.0883  0.0935
 7243SOL    HW123149   1.909   2.275   6.418  0.6876 -0.0019 -0.1539
 7243SOL    HW223150   1.843   2.394   6.484 -0.1532 -0.7483  0.3620
 7244SOL     OW23151   1.617   1.913   0.728  0.0543 -0.7545  0.2292
 7244SOL    HW123152   1.558   1.942   0.660 -0.7405  0.3293  1.3346
 7244SOL    HW223153   1.562   1.859   0.786 -0.6286  2.1911  2.6005
 7245SOL     OW23154   7.146   6.436   3.753 -0.2675 -0.1661 -0.0978
 7245SOL    HW123155   7.148   6.340   3.763 -1.8777 -0.2959 -0.7093
 7245SOL    HW223156   7.192   6.469   3.831 -0.3819 -1.4242  0.5332
 7246SOL     OW23157   4.302   1.622   2.148 -0.0047  0.4397 -0.0397
 7246SOL    HW123158   4.349   1.702   2.126 -0.3189  0.7824  0.5485
 7246SOL    HW223159   4.212   1.637   2.118 -0.4463  0.9189  1.4537
 7247SOL     OW23160   0.721   2.844   5.824 -0.1304  0.1537 -0.4024
 7247SOL    HW123161   0.799   2.862   5.877 -0.9452 -0.2015  0.9542
 7247SOL    HW223162   0.697   2.754   5.846 -1.8780  0.7982  0.4732
 7248SOL     OW23163   7.630   3.568   1.804 -0.2245 -0.1946 -0.1508
 7248SOL    HW123164   7.693   3.622   1.852  0.3166 -1.6570  0.8892
 7248SOL    HW223165   7.683   3.498   1.765 -1.1376 -1.3058  0.5127
 7249SOL     OW23166   3.248   4.548   3.109  0.1272 -0.2591  0.0267
 7249SOL    HW123167   3.194   4.626   3.101  0.3301 -0.0919  0.2439
 7249SOL    HW223168   3.326   4.578   3.157  0.2075 -0.5915  0.1086
 7250SOL     OW23169   2.219   7.345   4.606  0.0327  0.4609  0.6299
 7250SOL    HW123170   2.194   7.286   4.677 -1.7332 -0.2712 -0.5268
 7250SOL    HW223171   2.145   7.406   4.598  1.3740  2.2217  1.1221
 7251SOL     OW23172   1.042   3.952   5.388 -0.2054 -0.3195 -0.1642
 7251SOL    HW123173   1.016   3.863   5.410  1.8271 -1.0011 -0.2557
 7251SOL    HW223174   1.048   3.953   5.293 -1.3832  0.2955 -0.2456
 7252SOL     OW23175   7.230   6.576   4.524  0.1477  0.0303  0.0102
 7252SOL    HW123176   7.250   6.543   4.612  0.6496 -0.7014 -0.3715
 7252SOL    HW223177   7.173   6.509   4.486  1.2098 -0.4492 -0.7852
 7253SOL     OW23178   2.270   2.476   2.609 -0.2385 -0.0198  0.0614
 7253SOL    HW123179   2.327   2.429   2.548 -1.7377  0.2833 -1.6494
 7253SOL    HW223180   2.326   2.544   2.647  0.6040  0.1888 -1.4689
 7254SOL     OW23181   5.445   5.183   5.882 -0.2201  0.2573  0.3793
 7254SOL    HW123182   5.414   5.242   5.951  0.1604 -0.9848  1.6522
 7254SOL    HW223183   5.498   5.238   5.825  0.9104  0.9896  2.0615
 7255SOL     OW23184   6.806   7.443   3.846 -0.0269  0.5849 -0.9190
 7255SOL    HW123185   6.751   7.451   3.924  0.6453 -0.0433 -0.3704
 7255SOL    HW223186   6.821   7.533   3.818 -0.5451  0.8005 -0.5159
 7256SOL     OW23187   0.709   2.763   2.305  0.0841 -0.3782 -0.2384
 7256SOL    HW123188   0.691   2.679   2.347  1.4260 -0.3057  0.5624
 7256SOL    HW223189   0.805   2.770   2.307  0.0099  1.0291 -0.5627
 7257SOL     OW23190   4.089   1.967   0.922  0.7173 -0.5403 -0.1803
 7257SOL    HW123191   4.024   1.971   0.852 -0.0540  1.2229  0.5730
 7257SOL    HW223192   4.173   1.980   0.878  0.1952  1.1842 -0.7607
 7258SOL     OW23193   7.761   0.298   7.773 -0.0899 -0.2375  0.4039
 7258SOL    HW123194   7.804   0.312   7.857 -0.3854  0.3528  0.4639
 7258SOL    HW223195   7.816   0.344   7.710  0.6863 -1.5273  0.1116
 7259SOL     OW23196   4.736   2.680   1.600 -0.1454 -0.1882  0.0507
 7259SOL    HW123197   4.791   2.726   1.663  0.3314  0.5297 -0.8706
 7259SOL    HW223198   4.788   2.679   1.519 -1.3115  0.1497 -0.7240
 7260SOL     OW23199   0.276   7.108   7.907 -0.4081 -0.2750  0.2844
 7260SOL    HW123200   0.264   7.014   7.919  0.0836 -0.2495  1.0772
 7260SOL    HW223201   0.364   7.126   7.941 -0.7861  0.5801  0.8758
 7261SOL     OW23202   6.985   2.393   2.839  0.1674  0.1173  0.8665
 7261SOL    HW123203   6.987   2.466   2.777 -3.1168  0.7320  1.3358
 7261SOL    HW223204   7.037   2.424   2.914  1.2930  0.7234 -0.1231
 7262SOL     OW23205   5.481   2.005   7.770  0.2376 -0.5707 -0.6220
 7262SOL    HW123206   5.403   2.057   7.751  0.3441 -0.4847 -0.8327
 7262SOL    HW223207   5.549   2.070   7.789 -0.0580 -0.6610  0.8842
 7263SOL     OW23208   0.843   0.393   2.844  0.0647  0.2006 -0.3299
 7263SOL    HW123209   0.773   0.445   2.885  0.6355  0.0645  0.8720
 7263SOL    HW223210   0.898   0.366   2.918  0.4153 -1.1535 -1.0606
 7264SOL     OW23211   3.501   7.564   7.393  0.0182  0.6157  0.3685
 7264SOL    HW123212   3.488   7.499   7.323  0.4658 -0.2128  1.0410
 7264SOL    HW223213   3.416   7.608   7.400 -0.0246  0.7295 -0.7121
 7265SOL     OW23214   4.773   3.561   1.918 -0.0815 -0.1471  0.4997
 7265SOL    HW123215   4.793   3.641   1.966  0.3391  0.0789 -0.0507
 7265SOL    HW223216   4.687   3.577   1.880  0.9129  0.9125 -1.4076
 7266SOL     OW23217   3.931   2.440   4.376 -0.1302 -0.7613 -0.0543
 7266SOL    HW123218   3.869   2.377   4.340  0.4691 -1.7472  0.5764
 7266SOL    HW223219   3.927   2.427   4.471 -0.7213  0.8693  0.1834
 7267SOL     OW23220   4.069   6.895   3.339  0.2241 -0.6008 -0.0475
 7267SOL    HW123221   4.029   6.962   3.394 -2.4754 -0.4437 -1.9898
 7267SOL    HW223222   4.158   6.925   3.324 -0.7745  2.3957 -0.5353
 7268SOL     OW23223   6.934   0.090   2.182 -0.0454 -0.3005 -0.1916
 7268SOL    HW123224   6.981   0.140   2.116  1.4236 -0.2938  0.8017
 7268SOL    HW223225   6.934  -0.000   2.150  1.9664 -0.5646  0.4370
 7269SOL     OW23226   7.428   5.765   7.305  0.4719 -0.1496  0.9298
 7269SOL    HW123227   7.376   5.766   7.385  1.1131  0.2111  1.3460
 7269SOL    HW223228   7.375   5.811   7.241  0.3372  0.3390  1.3892
 7270SOL     OW23229   1.562   0.547   4.041  0.0309  0.1158  0.1715
 7270SOL    HW123230   1.471   0.528   4.014  0.3151 -0.1048 -0.6646
 7270SOL    HW223231   1.570   0.642   4.032  0.3927 -0.0379 -1.4716
 7271SOL     OW23232   3.466   3.979   7.468  0.5702  0.0779  0.2924
 7271SOL    HW123233   3.446   4.069   7.493  1.7652 -0.0048  1.6366
 7271SOL    HW223234   3.395   3.928   7.507 -0.2030  0.4154 -0.6103
 7272SOL     OW23235   5.899   2.660   4.406 -0.0951  0.3914 -0.2015
 7272SOL    HW123236   5.988   2.683   4.435 -0.1721 -0.1289  0.4579
 7272SOL    HW223237   5.847   2.739   4.424 -0.0693  0.1942  0.7750
 7273SOL     OW23238   5.957   2.206   6.077 -0.3100  0.2800 -0.0262
 7273SOL    HW123239   5.954   2.112   6.062 -0.1461  0.0607  1.2299
 7273SOL    HW223240   5.876   2.226   6.123  0.6264  0.3546  1.6820
 7274SOL     OW23241   3.178   2.930   7.680  0.1540  0.5184  0.4454
 7274SOL    HW123242   3.217   2.882   7.606  0.4527  0.6707  0.5016
 7274SOL    HW223243   3.130   2.864   7.729 -1.8475  0.7727 -1.0542
 7275SOL     OW23244   1.608   2.322   6.238 -0.4074 -0.5336 -0.2010
 7275SOL    HW123245   1.600   2.227   6.246  0.2179 -0.7569 -1.8650
 7275SOL    HW223246   1.687   2.343   6.287 -0.6105 -0.8558  0.2689
 7276SOL     OW23247   5.246   5.183   2.042 -0.0590  0.0974  0.2287
 7276SOL    HW123248   5.220   5.215   2.128 -0.4865  1.7547 -0.4840
 7276SOL    HW223249   5.341   5.198   2.038 -0.3725  2.1788 -0.4156
 7277SOL     OW23250   6.207   5.979   5.805  0.2755  0.1784 -0.6616
 7277SOL    HW123251   6.290   5.942   5.774  0.4158 -0.0648 -0.0159
 7277SOL    HW223252   6.141   5.913   5.783  0.4922 -0.3688  0.2742
 7278SOL     OW23253   6.024   2.644   0.509  0.5655  0.1703 -0.0310
 7278SOL    HW123254   5.934   2.648   0.542 -0.0004 -1.0082 -1.3333
 7278SOL    HW223255   6.043   2.732   0.477 -1.1216 -0.2031 -2.2143
 7279SOL     OW23256   3.995   0.068   1.417 -0.3376  0.6695 -0.0652
 7279SOL    HW123257   4.060   0.071   1.487  1.1798  0.1689 -1.3974
 7279SOL    HW223258   3.926   0.012   1.452  0.1763  0.7742  1.1830
 7280SOL     OW23259   0.468   6.217   2.460  0.0797 -0.2387 -0.0701
 7280SOL    HW123260   0.512   6.178   2.384 -0.5319  0.1972 -0.6513
 7280SOL    HW223261   0.489   6.157   2.532  1.7297  0.0181 -0.2936
 7281SOL     OW23262   4.426   5.881   3.712  0.1601  1.0897 -0.0790
 7281SOL    HW123263   4.510   5.924   3.696  0.4584  1.0883  1.3726
 7281SOL    HW223264   4.418   5.817   3.641  1.7455  0.5457  0.1936
 7282SOL     OW23265   5.873   6.387   5.760 -0.2783  0.1821  0.2750
 7282SOL    HW123266   5.873   6.431   5.845 -1.0804  0.3383  0.2011
 7282SOL    HW223267   5.865   6.294   5.782  1.1584  0.0732  0.4203
 7283SOL     OW23268   0.871   6.553   4.685  0.3546 -0.1469  0.3450
 7283SOL    HW123269   0.779   6.569   4.706  0.6854  1.7398  0.5944
 7283SOL    HW223270   0.871   6.472   4.635 -1.5372  0.2130 -0.3120
 7284SOL     OW23271   1.408   4.023   1.054 -0.7114 -0.2052  0.3809
 7284SOL    HW123272   1.336   4.014   0.992 -1.1446  0.9076  0.7138
 7284SOL    HW223273   1.429   4.117   1.054 -0.2436 -0.2962  1.3882
 7285SOL     OW23274   5.745   7.871   6.602 -0.2101 -0.0537  0.1956
 7285SOL    HW123275   5.675   7.927   6.636 -1.3393 -0.8018 -0.8065
 7285SOL    HW223276   5.732   7.871   6.508  2.5555  1.5809 -0.2812
 7286SOL     OW23277   5.476   1.035   3.101  0.7503 -0.6166  0.1525
 7286SOL    HW123278   5.472   1.131   3.098  2.0653 -0.5506 -0.4371
 7286SOL    HW223279   5.496   1.015   3.193 -0.9543 -0.4272  0.5935
 7287SOL     OW23280   2.200   3.890   1.974  0.1354  0.2352  0.8017
 7287SOL    HW123281   2.191   3.817   1.913  1.0723  0.5103  0.3169
 7287SOL    HW223282   2.272   3.863   2.033 -2.0451 -0.9279  3.1259
 7288SOL     OW23283   3.162   4.191   7.801 -0.0028  0.1551  0.1696
 7288SOL    HW123284   3.132   4.190   7.710 -0.9914 -0.8750  0.4819
 7288SOL    HW223285   3.089   4.154   7.851  0.2377  1.3643  1.4856
 7289SOL     OW23286   3.374   6.701   6.838  0.3655 -0.0372  0.6216
 7289SOL    HW123287   3.412   6.651   6.910  2.1827  1.1288  0.5272
 7289SOL    HW223288   3.448   6.718   6.779 -0.2267  2.4436  0.4881
 7290SOL     OW23289   0.453   2.961   1.326 -0.0997 -0.5914  0.5002
 7290SOL    HW123290   0.370   2.962   1.279  0.1482  0.5581  0.0537
 7290SOL    HW223291   0.517   2.993   1.262  0.4943 -0.4420  1.1596
 7291SOL     OW23292   2.151   6.006   1.268  0.0763 -0.6081 -0.3586
 7291SOL    HW123293   2.200   5.960   1.201  1.0046  1.3533 -1.1230
 7291SOL    HW223294   2.216   6.058   1.315 -0.8063 -0.5818  0.9054
 7292SOL     OW23295   6.020   5.252   1.934 -0.3044  0.1618 -0.3614
 7292SOL    HW123296   6.043   5.290   1.849  0.0411  1.1263  0.1449
 7292SOL    HW223297   6.101   5.258   1.985 -0.3641 -0.8900 -0.1244
 7293SOL     OW23298   4.852   4.362   7.771  0.5676 -0.2463 -0.8933
 7293SOL    HW123299   4.772   4.375   7.720  0.0215 -0.6440 -0.1728
 7293SOL    HW223300   4.857   4.267   7.782  0.7516 -0.1749 -0.3369
 7294SOL     OW23301   6.438   2.944   6.146 -0.6082 -0.1123  0.5167
 7294SOL    HW123302   6.527   2.974   6.132 -1.0476  1.2220  0.4568
 7294SOL    HW223303   6.414   2.901   6.064  0.2258 -1.1901  0.8080
 7295SOL     OW23304   3.255   0.295   0.533 -0.1621  0.0346  0.2418
 7295SOL    HW123305   3.324   0.328   0.591  1.4211 -1.7882 -0.5090
 7295SOL    HW223306   3.290   0.308   0.445 -0.4151 -1.6353 -0.1286
 7296SOL     OW23307   1.774   8.044   7.877  0.1505  0.1312 -0.1854
 7296SOL    HW123308   1.734   8.093   7.949 -1.4821 -0.4089 -0.6754
 7296SOL    HW223309   1.866   8.069   7.879  0.1572  0.1457  2.0698
 7297SOL     OW23310   3.817   3.225   2.738  0.4523  0.1111  0.0854
 7297SOL    HW123311   3.892   3.285   2.743  0.5200 -0.0702  2.0362
 7297SOL    HW223312   3.852   3.140   2.764  0.3241 -0.8403 -2.5222
 7298SOL     OW23313   7.165   4.504   6.760 -0.2006  0.7146 -0.3169
 7298SOL    HW123314   7.217   4.476   6.835 -1.9255  0.6991  0.9199
 7298SOL    HW223315   7.088   4.448   6.760 -1.1314  1.9264 -0.9913
 7299SOL     OW23316   4.281   2.627   7.192 -0.6333 -0.0731 -0.4661
 7299SOL    HW123317   4.359   2.682   7.190 -0.3339 -0.5086 -0.9537
 7299SOL    HW223318   4.232   2.652   7.114 -0.0317 -1.1500 -1.2099
 7300SOL     OW23319   3.582   0.334   6.724  0.2032 -0.0985 -0.4653
 7300SOL    HW123320   3.628   0.418   6.716  0.8065 -0.3252  0.5326
 7300SOL    HW223321   3.492   0.354   6.699  0.4501  0.7373 -0.7303
 7301SOL     OW23322   6.271   3.921   4.340  0.9135 -0.9150 -0.0701
 7301SOL    HW123323   6.338   3.900   4.275  0.7975 -1.3944 -0.0365
 7301SOL    HW223324   6.207   3.851   4.332  0.2882 -0.3232 -0.2726
 7302SOL     OW23325   6.373   4.523   2.486  0.3187  0.0419  0.4691
 7302SOL    HW123326   6.397   4.466   2.559  1.4338  1.6152  1.4124
 7302SOL    HW223327   6.435   4.501   2.417  1.9615  1.2217  1.4511
 7303SOL     OW23328   1.402   7.928   2.149 -0.3658 -0.0611  0.3901
 7303SOL    HW123329   1.358   7.938   2.234  0.7379  0.3317  0.9323
 7303SOL    HW223330   1.436   7.838   2.151 -1.1851 -0.3882 -0.0580
 7304SOL     OW23331   1.467   6.797   7.187  0.4643 -0.4771  0.7185
 7304SOL    HW123332   1.486   6.752   7.269 -0.7743 -0.9906  0.7503
 7304SOL    HW223333   1.393   6.748   7.150 -1.7615  2.2183  1.3273
 7305SOL     OW23334   5.264   2.569   1.999  0.0652 -0.1426  0.2267
 7305SOL    HW123335   5.271   2.661   1.971  1.3097 -0.5252 -0.8104
 7305SOL    HW223336   5.343   2.528   1.965 -0.2271 -1.5001  1.1291
 7306SOL     OW23337   6.707   4.479   3.202  0.6713 -0.3194  0.1373
 7306SOL    HW123338   6.628   4.449   3.157 -0.4877  4.0758 -1.2031
 7306SOL    HW223339   6.774   4.483   3.134  0.0264  2.4540 -0.4572
 7307SOL     OW23340   5.953   5.658   7.287 -0.5790 -0.2467 -0.0045
 7307SOL    HW123341   5.990   5.569   7.289 -1.6646 -0.7306  2.5119
 7307SOL    HW223342   5.860   5.644   7.268 -1.3804 -0.0288  3.2118
 7308SOL     OW23343   2.379   6.873   6.335  0.6677  0.2812 -0.2875
 7308SOL    HW123344   2.432   6.855   6.258  0.9807  1.4689 -0.3715
 7308SOL    HW223345   2.289   6.857   6.307  0.8215  0.1722 -0.7310
 7309SOL     OW23346   5.133   1.601   1.768 -1.0444  0.2088  0.4370
 7309SOL    HW123347   5.064   1.537   1.751  0.6669 -1.9075  0.9906
 7309SOL    HW223348   5.175   1.571   1.849 -0.6082  2.4763  1.1436
 7310SOL     OW23349   5.005   4.056   6.115 -0.0128 -0.0115  0.1821
 7310SOL    HW123350   4.988   4.116   6.043 -0.4787  1.3492  1.3820
 7310SOL    HW223351   4.936   4.075   6.179  0.0518 -1.5717  0.7573
 7311SOL     OW23352   4.281   0.205   5.717 -0.2737 -0.2315 -0.2283
 7311SOL    HW123353   4.342   0.276   5.694  0.5868 -1.2270 -1.1248
 7311SOL    HW223354   4.199   0.250   5.735  0.3491  1.0386 -0.3695
 7312SOL     OW23355   5.278   3.035   3.927  0.0498  0.2277  0.3203
 7312SOL    HW123356   5.322   2.951   3.941  0.9514  0.6925  0.3276
 7312SOL    HW223357   5.342   3.101   3.955 -0.9102  0.8982  0.9909
 7313SOL     OW23358   3.942   5.334   3.339 -0.0503  0.4232  0.1428
 7313SOL    HW123359   3.863   5.388   3.346 -0.5444 -0.1301 -0.9077
 7313SOL    HW223360   3.982   5.339   3.426 -0.9233  1.1976  0.5197
 7314SOL     OW23361   2.553   7.409   7.691 -0.0763 -0.3008  0.0048
 7314SOL    HW123362   2.565   7.451   7.776  1.8961 -0.0713 -0.3352
 7314SOL    HW223363   2.505   7.328   7.710 -0.4806  0.2040  1.1892
 7315SOL     OW23364   2.856   2.875   1.832  0.1300 -0.0866  0.6534
 7315SOL    HW123365   2.824   2.945   1.777 -0.7593 -0.0533  1.1991
 7315SOL    HW223366   2.779   2.823   1.854  0.9896 -2.2726 -1.1381
 7316SOL     OW23367   3.367   0.058   7.972  0.0685 -0.4278  0.2106
 7316SOL    HW123368   3.303   0.127   7.986 -0.2543  0.2355 -3.6053
 7316SOL    HW223369   3.321  -0.007   7.919  1.6781 -1.3712 -0.0928
 7317SOL     OW23370   7.499   2.218   3.110 -0.0390 -0.9932 -0.2438
 7317SOL    HW123371   7.469   2.188   3.024  1.2290  0.1749 -1.1305
 7317SOL    HW223372   7.555   2.147   3.141 -0.1903 -1.2510 -0.5516
 7318SOL     OW23373   0.084   0.177   7.596 -0.0872 -0.4804  0.3851
 7318SOL    HW123374   0.028   0.118   7.647 -1.1731  1.0571  1.0261
 7318SOL    HW223375   0.066   0.153   7.505 -0.2278 -1.3677  0.6284
 7319SOL     OW23376   2.452   7.406   3.676  0.2719 -0.4495 -0.0378
 7319SOL    HW123377   2.412   7.377   3.594  0.8032  2.1118 -1.3138
 7319SOL    HW223378   2.455   7.502   3.668  0.7063 -0.1484  2.8206
 7320SOL     OW23379   3.684   5.878   1.923 -0.4993 -0.0552 -0.4003
 7320SOL    HW123380   3.599   5.920   1.937 -0.3237  0.2641 -0.2924
 7320SOL    HW223381   3.735   5.900   2.001 -0.2246 -0.0246 -0.5864
 7321SOL     OW23382   2.752   6.140   1.854  0.0250  0.6451 -0.0394
 7321SOL    HW123383   2.736   6.221   1.805 -1.0407  0.8902  0.6845
 7321SOL    HW223384   2.698   6.075   1.810 -1.7126  1.0834  1.3578
 7322SOL     OW23385   0.665   2.320   0.968 -0.1550 -0.1730  0.3545
 7322SOL    HW123386   0.660   2.226   0.987 -1.0400 -0.2406 -0.1665
 7322SOL    HW223387   0.746   2.349   1.011  1.0029 -1.4947 -0.8118
 7323SOL     OW23388   4.585   4.006   7.422  0.1847 -0.9686 -0.6779
 7323SOL    HW123389   4.603   3.985   7.514  0.5570 -1.5999 -0.8840
 7323SOL    HW223390   4.564   3.921   7.382  1.8345 -0.9987 -1.5768
 7324SOL     OW23391   2.998   6.592   4.399  0.1413 -0.4641  0.1284
 7324SOL    HW123392   2.981   6.685   4.389 -1.6660 -0.8713 -1.1736
 7324SOL    HW223393   3.082   6.587   4.445  0.2370  1.7758  0.2914
 7325SOL     OW23394   3.826   6.644   2.183 -0.2726  0.3586 -0.1844
 7325SOL    HW123395   3.887   6.574   2.160  1.0178  0.4283  2.6793
 7325SOL    HW223396   3.879   6.723   2.183 -0.7488  0.6895  0.6848
 7326SOL     OW23397   0.262   0.673   1.939  0.1323  0.2844  0.1859
 7326SOL    HW123398   0.243   0.587   1.901 -0.3806  0.8135 -0.7955
 7326SOL    HW223399   0.337   0.658   1.996  1.1135 -0.4992 -1.2534
 7327SOL     OW23400   5.795   4.370   3.396  0.1705  0.0567  0.1360
 7327SOL    HW123401   5.797   4.277   3.377  1.1250 -0.1897  1.3309
 7327SOL    HW223402   5.750   4.409   3.321 -1.4722 -1.4982  0.2466
 7328SOL     OW23403   7.927   5.799   2.769  0.0945  0.1455  0.0958
 7328SOL    HW123404   7.849   5.808   2.825 -0.8541  1.1317 -1.3119
 7328SOL    HW223405   7.895   5.818   2.681  2.0320  1.0279 -0.4599
 7329SOL     OW23406   7.001   7.943   3.427 -0.3056  0.0291  0.4635
 7329SOL    HW123407   6.996   7.910   3.337 -1.2209 -0.4435  0.6707
 7329SOL    HW223408   6.971   8.034   3.421 -0.9633 -0.1867  0.3729
 7330SOL     OW23409   0.264   3.000   0.221 -0.6869  0.5536  0.0845
 7330SOL    HW123410   0.314   2.950   0.286 -1.5822  0.6092  0.8433
 7330SOL    HW223411   0.311   3.083   0.214  1.7348 -0.8722 -2.3601
 7331SOL     OW23412   1.770   5.062   6.884  0.1416  0.1302  0.3387
 7331SOL    HW123413   1.736   5.145   6.849 -3.4729 -1.8419 -1.3977
 7331SOL    HW223414   1.706   5.036   6.949  1.3332 -1.2208  1.0214
 7332SOL     OW23415   2.858   6.068   6.205  0.3384  0.1519  0.4564
 7332SOL    HW123416   2.906   5.997   6.248  0.6447 -0.6337 -1.1084
 7332SOL    HW223417   2.795   6.098   6.270  0.0936 -1.6624  1.0932
 7333SOL     OW23418   3.087   4.406   1.260 -0.5495  0.1579 -0.1678
 7333SOL    HW123419   3.150   4.476   1.277 -1.7606  1.2049  0.1539
 7333SOL    HW223420   3.122   4.361   1.183 -0.4811  2.0434 -1.2906
 7334SOL     OW23421   6.279   7.307   2.857  0.0093  0.5080  0.4669
 7334SOL    HW123422   6.289   7.369   2.785  1.2588 -1.6641 -1.3665
 7334SOL    HW223423   6.332   7.344   2.928  1.8029  0.9310 -1.0139
 7335SOL     OW23424   5.790   2.235   1.638  0.4039 -0.4516 -0.0765
 7335SOL    HW123425   5.778   2.201   1.549  0.1248  0.6619 -0.4849
 7335SOL    HW223426   5.715   2.201   1.687 -0.4600  0.4261 -0.7472
 7336SOL     OW23427   1.687   3.389   7.198  0.0392 -0.5324  0.2422
 7336SOL    HW123428   1.659   3.329   7.267  0.3551  0.9909  1.7493
 7336SOL    HW223429   1.629   3.465   7.207  1.7196  0.7694  0.5047
 7337SOL     OW23430   7.199   4.814   4.695 -0.0413 -0.0584  0.2560
 7337SOL    HW123431   7.147   4.886   4.730 -0.9353 -0.1283 -0.8860
 7337SOL    HW223432   7.181   4.814   4.601  1.3846 -0.6142 -0.0540
 7338SOL     OW23433   0.977   7.687   1.723 -0.4427 -0.5631 -0.2461
 7338SOL    HW123434   0.994   7.594   1.738 -1.1935 -0.6779 -0.0257
 7338SOL    HW223435   0.886   7.700   1.753  0.2078  0.6190  1.4003
 7339SOL     OW23436   6.850   0.965   6.599 -0.2147 -0.1696 -0.0240
 7339SOL    HW123437   6.932   0.988   6.555 -0.3166 -0.3403 -0.3044
 7339SOL    HW223438   6.864   0.989   6.690  0.1494 -0.2003 -0.0722
 7340SOL     OW23439   3.517   2.534   7.964 -0.6843  0.3070  0.2050
 7340SOL    HW123440   3.572   2.612   7.967 -0.0744 -0.0628 -0.7184
 7340SOL    HW223441   3.565   2.473   7.907 -1.4338 -0.5147  0.4233
 7341SOL     OW23442   2.414   6.538   7.642 -0.2297  0.7830  0.2389
 7341SOL    HW123443   2.346   6.600   7.618 -1.3283 -0.6728 -0.5845
 7341SOL    HW223444   2.473   6.536   7.567 -1.2220 -0.4932 -0.5476
 7342SOL     OW23445   1.811   0.216   7.674 -0.2848 -0.2682  0.5522
 7342SOL    HW123446   1.903   0.236   7.656  0.0244  0.0880  2.3053
 7342SOL    HW223447   1.813   0.130   7.716 -0.4649  0.6588  2.5846
 7343SOL     OW23448   2.384   6.585   1.724  0.4639 -0.2056  0.1602
 7343SOL    HW123449   2.431   6.570   1.807 -2.2906 -0.9251  1.6956
 7343SOL    HW223450   2.293   6.564   1.744 -0.5627  1.1451 -2.6717
 7344SOL     OW23451   6.089   2.353   3.917  0.7111  0.3032 -0.0173
 7344SOL    HW123452   6.048   2.406   3.985  0.2506  1.6871 -1.3311
 7344SOL    HW223453   6.021   2.342   3.851  1.1012 -1.1406 -0.2146
 7345SOL     OW23454   4.934   0.519   1.851  0.6749 -0.5915  0.3604
 7345SOL    HW123455   4.947   0.431   1.815 -0.9736 -0.9518  0.5449
 7345SOL    HW223456   4.895   0.568   1.779  0.6453 -0.3079  0.5712
 7346SOL     OW23457   3.749   2.188   3.173  0.2586 -0.1051  0.0205
 7346SOL    HW123458   3.691   2.172   3.248 -0.3392  0.0327 -0.4112
 7346SOL    HW223459   3.691   2.187   3.097  1.0322 -1.6409 -0.6023
 7347SOL     OW23460   2.724   5.026   0.666  0.3337  0.4316  0.2358
 7347SOL    HW123461   2.669   4.950   0.646 -1.1150  1.1354  1.3721
 7347SOL    HW223462   2.751   5.060   0.581  0.9460 -1.2697 -0.3044
 7348SOL     OW23463   6.668   7.894   4.251 -0.0606 -0.1497  0.3390
 7348SOL    HW123464   6.740   7.853   4.300  0.1170 -0.5509 -0.2492
 7348SOL    HW223465   6.711   7.940   4.179 -0.4972 -2.3377 -1.4248
 7349SOL     OW23466   8.046   7.817   5.223  0.1494  0.4290  0.0983
 7349SOL    HW123467   8.008   7.848   5.305 -1.0931 -0.5816 -0.0639
 7349SOL    HW223468   7.971   7.792   5.169  0.9909 -0.2192 -0.8183
 7350SOL     OW23469   2.527   3.290   5.801  0.5292 -0.0766  0.1331
 7350SOL    HW123470   2.577   3.303   5.721  0.8406  1.3405  0.5394
 7350SOL    HW223471   2.585   3.240   5.858  1.0180  0.4743  0.1330
 7351SOL     OW23472   5.054   7.853   0.564 -0.3467 -0.2444  0.0681
 7351SOL    HW123473   5.038   7.782   0.626 -3.2909  0.9121  0.8175
 7351SOL    HW223474   4.981   7.848   0.502  0.7156  0.6622 -1.2971
 7352SOL     OW23475   7.590   7.498   3.334  0.1911 -0.0617 -0.3559
 7352SOL    HW123476   7.514   7.473   3.386  0.0256 -1.4210 -1.1913
 7352SOL    HW223477   7.637   7.561   3.388 -1.0563  0.1242  0.5486
 7353SOL     OW23478   0.513   2.631   3.458 -0.8204 -0.2282 -0.3719
 7353SOL    HW123479   0.503   2.588   3.373  0.2994 -0.1392 -0.5574
 7353SOL    HW223480   0.435   2.685   3.467 -0.1294  1.1220 -2.1336
 7354SOL     OW23481   0.339   6.363   5.511 -0.2097  0.3235  0.5513
 7354SOL    HW123482   0.379   6.277   5.504 -0.5650  0.1233  0.9312
 7354SOL    HW223483   0.393   6.410   5.574  0.2299  0.5254  0.0307
 7355SOL     OW23484   7.976   5.794   1.979  0.6701 -0.2247 -0.5001
 7355SOL    HW123485   7.989   5.865   1.916 -0.2135  1.2084  0.8699
 7355SOL    HW223486   7.884   5.800   2.004  0.8165 -1.2562  0.3815
 7356SOL     OW23487   2.687   4.217   1.299  0.1890 -0.3709  0.0281
 7356SOL    HW123488   2.706   4.284   1.234  1.9931 -1.8670 -1.1178
 7356SOL    HW223489   2.694   4.134   1.251  0.2355 -1.4831  1.8346
 7357SOL     OW23490   7.354   5.269   7.109  0.5203 -0.1992  0.4236
 7357SOL    HW123491   7.423   5.253   7.174  0.2629 -0.6139  0.5982
 7357SOL    HW223492   7.402   5.296   7.030  1.2495 -3.9310 -0.6277
 7358SOL     OW23493   6.433   2.032   1.560 -0.6977 -0.4134 -0.2681
 7358SOL    HW123494   6.384   1.951   1.543  0.4383 -0.8823 -1.4846
 7358SOL    HW223495   6.378   2.101   1.522 -0.7223 -0.8574 -1.0597
 7359SOL     OW23496   7.605   5.029   7.850  0.4833  0.6040  0.4513
 7359SOL    HW123497   7.569   4.950   7.811 -2.0176  1.3758  0.9982
 7359SOL    HW223498   7.664   5.065   7.784  0.8107 -1.1146 -0.2260
 7360SOL     OW23499   1.591   2.113   6.485 -0.4537 -0.2412 -0.0120
 7360SOL    HW123500   1.604   2.101   6.578 -2.4665  1.0476  0.5205
 7360SOL    HW223501   1.529   2.044   6.460  0.1745 -0.6617 -0.4468
 7361SOL     OW23502   4.104   5.930   2.439 -0.2687  0.3221 -0.2744
 7361SOL    HW123503   4.044   5.962   2.506  0.1128  2.3434 -0.8280
 7361SOL    HW223504   4.067   5.847   2.411 -2.3070  1.0763  0.0333
 7362SOL     OW23505   4.054   2.260   3.696 -0.0309 -0.3588 -0.6839
 7362SOL    HW123506   3.980   2.284   3.753 -0.2574  0.8972 -1.4767
 7362SOL    HW223507   4.087   2.344   3.663  0.6546 -1.0173 -1.7087
 7363SOL     OW23508   2.371   1.827   0.253 -0.3706 -0.0021 -0.0893
 7363SOL    HW123509   2.306   1.893   0.230 -2.2640 -1.8038 -0.2286
 7363SOL    HW223510   2.375   1.829   0.348 -0.5731  0.1785 -0.0836
 7364SOL     OW23511   3.907   2.968   7.661  0.1530  0.0654  0.2837
 7364SOL    HW123512   3.957   2.966   7.579 -1.6198  2.0893 -0.9582
 7364SOL    HW223513   3.905   2.877   7.690  1.0667 -0.6774 -1.7992
 7365SOL     OW23514   3.114   0.235   1.110 -0.4221  0.2214  0.5823
 7365SOL    HW123515   3.185   0.219   1.047 -0.6225 -2.1113  0.8498
 7365SOL    HW223516   3.039   0.258   1.055 -0.6768 -2.0897 -0.1497
 7366SOL     OW23517   3.894   3.522   2.513 -0.0440 -0.1964  0.5799
 7366SOL    HW123518   3.847   3.454   2.464  1.2076 -0.4773 -0.2632
 7366SOL    HW223519   3.833   3.548   2.582 -1.4327 -0.5475 -0.4815
 7367SOL     OW23520   1.680   5.182   5.214  0.0117 -0.0192  0.0691
 7367SOL    HW123521   1.624   5.146   5.283 -1.2297  0.5972 -0.5665
 7367SOL    HW223522   1.622   5.185   5.137  0.6544  1.4572 -0.3963
 7368SOL     OW23523   7.393   4.305   0.764 -0.4037  0.3872  0.0844
 7368SOL    HW123524   7.413   4.398   0.758  0.8417  0.0504 -1.5403
 7368SOL    HW223525   7.467   4.267   0.810 -0.2550  0.0082 -0.4590
 7369SOL     OW23526   6.794   4.193   7.887 -0.0224 -0.4130  0.3004
 7369SOL    HW123527   6.870   4.140   7.864  0.1768  0.2749 -0.6659
 7369SOL    HW223528   6.817   4.234   7.970  1.6476  1.5779 -1.0371
 7370SOL     OW23529   5.077   2.810   6.112 -0.1504 -0.3485 -0.7430
 7370SOL    HW123530   5.118   2.834   6.195 -2.4377 -0.1397  0.4161
 7370SOL    HW223531   4.991   2.851   6.116 -1.0011 -1.8572 -2.4337
 7371SOL     OW23532   5.614   4.716   3.472 -0.3754 -0.4623 -0.3397
 7371SOL    HW123533   5.609   4.674   3.385  1.3207 -1.3755 -0.0448
 7371SOL    HW223534   5.705   4.745   3.479  0.1342 -2.2665  1.9119
 7372SOL     OW23535   5.277   4.369   5.502 -0.0445 -0.2946 -0.1347
 7372SOL    HW123536   5.223   4.445   5.483 -1.9674 -1.2962  0.9361
 7372SOL    HW223537   5.272   4.315   5.423  0.1319  0.0239 -0.3644
 7373SOL     OW23538   0.463   2.185   7.218  0.5756 -0.1952  0.0502
 7373SOL    HW123539   0.387   2.179   7.161  1.4248 -0.3843 -1.0906
 7373SOL    HW223540   0.439   2.252   7.283  0.1050  1.0367 -1.3402
 7374SOL     OW23541   0.441   4.306   5.028  0.1420  0.5679  0.2283
 7374SOL    HW123542   0.531   4.283   5.006 -0.0084  0.1022  0.0698
 7374SOL    HW223543   0.447   4.390   5.072  0.6971  0.3154  0.6383
 7375SOL     OW23544   2.077   7.541   1.692 -0.1095 -0.0359  0.0540
 7375SOL    HW123545   2.043   7.628   1.672 -0.5392  0.2223  1.7324
 7375SOL    HW223546   2.001   7.483   1.687  0.1193 -0.2710 -0.7717
 7376SOL     OW23547   4.774   7.160   3.859 -0.7657 -0.2292 -0.4139
 7376SOL    HW123548   4.858   7.206   3.866 -0.9620  0.2126 -0.8776
 7376SOL    HW223549   4.797   7.067   3.862 -0.5125 -0.1527  2.3682
 7377SOL     OW23550   3.024   5.796   1.873 -0.2343 -0.7837 -0.2979
 7377SOL    HW123551   3.070   5.816   1.791 -0.5649 -1.1220 -0.5704
 7377SOL    HW223552   2.932   5.795   1.849 -0.4462  0.5548  0.3845
 7378SOL     OW23553   7.804   3.343   1.755 -0.1329  0.3889 -0.0443
 7378SOL    HW123554   7.875   3.372   1.812 -0.4938 -0.4900  0.8779
 7378SOL    HW223555   7.755   3.279   1.807  0.5180 -1.7575 -1.8700
 7379SOL     OW23556   1.659   1.300   3.731  0.2068 -0.1702  0.6524
 7379SOL    HW123557   1.568   1.292   3.757  0.3128  0.4556  1.2215
 7379SOL    HW223558   1.659   1.369   3.664  0.3946  0.5273  1.3600
 7380SOL     OW23559   0.548   5.273   0.372 -0.0905 -0.3089 -0.9053
 7380SOL    HW123560   0.466   5.266   0.322 -1.0196  1.7943  0.1673
 7380SOL    HW223561   0.541   5.205   0.439 -0.6232 -0.6290 -1.2820
 7381SOL     OW23562   6.864   5.970   5.656 -0.1553 -0.5684  0.4854
 7381SOL    HW123563   6.901   6.041   5.603 -0.5708  0.3282  1.3553
 7381SOL    HW223564   6.779   6.002   5.683  0.3582 -0.6487  2.3406
 7382SOL     OW23565   4.231   3.947   7.263  0.6434 -0.3412 -0.0160
 7382SOL    HW123566   4.152   3.953   7.316  1.4174  0.8303  1.0720
 7382SOL    HW223567   4.200   3.926   7.175 -0.8229 -0.3852  0.4919
 7383SOL     OW23568   0.455   0.784   7.386 -0.2334 -0.4959  0.3123
 7383SOL    HW123569   0.463   0.877   7.364 -0.1359 -0.6004 -0.0900
 7383SOL    HW223570   0.406   0.783   7.468 -0.3117 -0.0924  0.2696
 7384SOL     OW23571   0.258   1.447   6.078 -0.0118 -0.7221  0.1250
 7384SOL    HW123572   0.220   1.472   6.163 -1.9722 -0.5857 -0.7591
 7384SOL    HW223573   0.298   1.528   6.046 -0.3043 -0.4745  0.3783
 7385SOL     OW23574   2.988   1.188   5.498 -0.1582  0.7255 -0.0153
 7385SOL    HW123575   2.895   1.171   5.481  0.0203  0.4137 -0.6810
 7385SOL    HW223576   2.993   1.192   5.594 -0.7056 -0.1414  0.0696
 7386SOL     OW23577   7.562   1.253   5.001 -0.0041  0.6543 -0.0244
 7386SOL    HW123578   7.530   1.208   5.080 -2.7150  2.2068 -0.1557
 7386SOL    HW223579   7.535   1.196   4.929  0.5872  0.2958  0.0279
 7387SOL     OW23580   5.011   4.643   5.781 -0.0896  0.4220 -0.9379
 7387SOL    HW123581   5.078   4.607   5.839  1.2386  0.7181 -2.2262
 7387SOL    HW223582   4.975   4.567   5.736 -1.6718  0.0979  0.7459
 7388SOL     OW23583   6.263   4.072   5.648  0.3650  0.4327  0.5062
 7388SOL    HW123584   6.343   4.089   5.696  0.1875  1.4016  0.4668
 7388SOL    HW223585   6.284   3.997   5.592  1.5771  1.3135 -0.2694
 7389SOL     OW23586   3.379   0.827   7.989 -0.1335  0.3242 -0.1542
 7389SOL    HW123587   3.284   0.814   7.992 -0.3894  1.8917 -0.4474
 7389SOL    HW223588   3.392   0.891   7.918  0.9910  1.2277  0.8249
 7390SOL     OW23589   5.548   3.741   3.165 -0.2832 -0.2699  0.0329
 7390SOL    HW123590   5.622   3.701   3.211  0.4966  0.4642 -0.5446
 7390SOL    HW223591   5.552   3.834   3.189 -1.5735 -0.3657  0.7102
 7391SOL     OW23592   5.445   2.266   2.101  0.6328  0.2317  0.0506
 7391SOL    HW123593   5.451   2.323   2.177 -0.7130 -0.9823  1.1248
 7391SOL    HW223594   5.472   2.180   2.134 -2.4718 -0.9221 -0.0555
 7392SOL     OW23595   7.016   6.600   7.763  0.1747  0.4887 -0.1681
 7392SOL    HW123596   6.986   6.514   7.792 -3.0403  0.7704 -2.1438
 7392SOL    HW223597   7.004   6.657   7.839  0.9755 -0.4842  0.7200
 7393SOL     OW23598   0.445   2.508   3.207  0.1883 -0.5480  0.4846
 7393SOL    HW123599   0.355   2.538   3.218  0.1848 -1.1926  2.9536
 7393SOL    HW223600   0.439   2.413   3.204  0.8331 -0.6962  2.2902
 7394SOL     OW23601   2.661   5.959   0.876  0.0035 -0.2795 -0.4191
 7394SOL    HW123602   2.705   5.889   0.923  0.8294 -0.2379 -1.1076
 7394SOL    HW223603   2.732   6.013   0.841 -0.5806 -0.3095 -1.7016
 7395SOL     OW23604   5.988   7.133   1.909 -0.3597 -0.0626 -0.4940
 7395SOL    HW123605   5.916   7.143   1.971 -0.6706  1.9065 -1.0790
 7395SOL    HW223606   5.946   7.107   1.827 -0.5008  1.3356 -0.9034
 7396SOL     OW23607   1.357   3.991   6.809  0.2160  0.6023  0.4517
 7396SOL    HW123608   1.401   4.065   6.768 -0.4078  1.0626  0.5933
 7396SOL    HW223609   1.427   3.934   6.839  0.6972  0.9400 -0.0142
 7397SOL     OW23610   7.576   4.462   2.801 -0.2028 -0.0841  0.2343
 7397SOL    HW123611   7.492   4.506   2.813 -0.9003 -0.3720 -2.8520
 7397SOL    HW223612   7.638   4.515   2.851 -1.9208  1.0770  1.2492
 7398SOL     OW23613   1.421   2.513   4.485  0.3390 -0.3601 -0.3736
 7398SOL    HW123614   1.335   2.555   4.481  1.3560  2.0033  0.7683
 7398SOL    HW223615   1.405   2.429   4.527 -1.3979  0.0997 -0.0488
 7399SOL     OW23616   2.998   3.506   7.312  0.4512  0.2335  0.1841
 7399SOL    HW123617   2.918   3.462   7.338  0.3170  1.0536  1.1857
 7399SOL    HW223618   2.969   3.580   7.259  0.6149 -0.0941 -0.3786
 7400SOL     OW23619   5.725   6.441   6.663 -0.2175 -0.4815  0.2839
 7400SOL    HW123620   5.806   6.483   6.690 -0.4757  0.0157  0.3017
 7400SOL    HW223621   5.747   6.397   6.580  0.1337 -0.5710  0.4258
 7401SOL     OW23622   1.463   0.112   2.012  0.0126 -0.3403 -0.0005
 7401SOL    HW123623   1.463   0.044   2.079 -1.1047  0.6808  1.0829
 7401SOL    HW223624   1.516   0.182   2.048 -1.0865  0.4599  0.1102
 7402SOL     OW23625   3.740   3.884   4.025  0.0443  0.0528 -0.4874
 7402SOL    HW123626   3.829   3.858   4.001  0.6991  0.2611  1.5297
 7402SOL    HW223627   3.733   3.975   3.997  1.1265  0.5922  0.8935
 7403SOL     OW23628   2.266   3.465   3.416  0.1703  0.4709 -0.4188
 7403SOL    HW123629   2.320   3.532   3.457  0.6743 -0.2681  0.1406
 7403SOL    HW223630   2.193   3.453   3.476  0.5875 -0.1729 -0.0366
 7404SOL     OW23631   5.400   3.868   6.182 -0.2614 -0.0478  0.6143
 7404SOL    HW123632   5.317   3.848   6.140 -1.2178 -1.3119  2.9358
 7404SOL    HW223633   5.445   3.784   6.188 -0.4716 -0.0749  2.6312
 7405SOL     OW23634   3.969   7.626   7.504 -0.2176 -0.6704  0.6095
 7405SOL    HW123635   3.896   7.618   7.443  0.6834  1.6756 -0.9119
 7405SOL    HW223636   3.938   7.687   7.571 -0.3589 -1.3504  1.1783
 7406SOL     OW23637   6.326   4.200   0.628  0.3868  0.5021 -0.0845
 7406SOL    HW123638   6.240   4.158   0.625  1.3238 -1.5626 -0.0530
 7406SOL    HW223639   6.368   4.162   0.705  0.4006  3.5404  1.5712
 7407SOL     OW23640   5.661   6.880   1.879  0.1837 -0.2231 -0.9572
 7407SOL    HW123641   5.569   6.865   1.858 -0.5812  0.0652  1.8793
 7407SOL    HW223642   5.697   6.791   1.889 -0.0302 -0.3217 -1.0473
 7408SOL     OW23643   1.604   4.115   7.975 -0.1758  0.1196  0.1055
 7408SOL    HW123644   1.682   4.131   7.923 -0.0106 -0.4722  0.1607
 7408SOL    HW223645   1.571   4.202   7.998 -1.7064  0.5442 -3.0903
 7409SOL     OW23646   6.719   4.526   3.618 -0.0390 -0.1301  0.2689
 7409SOL    HW123647   6.687   4.445   3.579 -3.5128  1.5671 -0.8836
 7409SOL    HW223648   6.801   4.544   3.573 -0.5586 -1.6492 -1.4000
 7410SOL     OW23649   4.095   2.802   2.251  0.0614 -0.4013  0.3236
 7410SOL    HW123650   4.060   2.826   2.337  0.9225  0.1644  0.5322
 7410SOL    HW223651   4.158   2.733   2.270  0.5337 -0.0086  0.1994
 7411SOL     OW23652   5.415   6.439   4.580 -0.0267  0.6334  0.0086
 7411SOL    HW123653   5.419   6.534   4.570  1.8112  0.7196  1.0156
 7411SOL    HW223654   5.486   6.407   4.525 -0.3099 -0.1237  0.0793
 7412SOL     OW23655   2.388   4.739   4.106  0.4053  0.2703  0.3010
 7412SOL    HW123656   2.402   4.775   4.193 -0.8373 -1.2772  1.2015
 7412SOL    HW223657   2.333   4.661   4.121  0.7155 -0.4088 -1.7904
 7413SOL     OW23658   6.843   0.522   7.889 -0.4013 -0.1211 -0.1306
 7413SOL    HW123659   6.833   0.523   7.794  1.5584  0.0420 -0.3835
 7413SOL    HW223660   6.903   0.450   7.906 -0.6569 -0.0856  0.9794
 7414SOL     OW23661   3.162   3.090   0.703 -0.0135 -0.0271  0.1670
 7414SOL    HW123662   3.085   3.106   0.649  0.1236 -0.9555 -0.3176
 7414SOL    HW223663   3.235   3.092   0.641  0.2341 -0.2592  0.4498
 7415SOL     OW23664   6.289   7.360   3.834 -0.4584  0.5626  0.3398
 7415SOL    HW123665   6.349   7.298   3.793 -0.4392  0.7646  0.0617
 7415SOL    HW223666   6.287   7.334   3.926 -0.7817 -0.1192  0.1510
 7416SOL     OW23667   1.119   0.034   0.221 -0.1671  0.1131  0.2461
 7416SOL    HW123668   1.118   0.129   0.214  2.7614  0.1324 -1.5389
 7416SOL    HW223669   1.033   0.006   0.190 -0.8083  2.1343  0.1009
 7417SOL     OW23670   7.553   5.657   8.002 -0.0499  1.1112 -0.1930
 7417SOL    HW123671   7.616   5.717   7.964 -0.2987  1.8611  0.5390
 7417SOL    HW223672   7.602   5.609   8.069  0.0231  0.8755 -0.4159
 7418SOL     OW23673   7.655   7.244   0.012  0.1838 -0.1191 -0.0910
 7418SOL    HW123674   7.725   7.309   0.006  0.2859 -0.2440 -0.2553
 7418SOL    HW223675   7.609   7.251  -0.072  0.5907 -0.7101 -0.3651
 7419SOL     OW23676   5.790   5.786   5.556  0.3712 -0.4837 -0.5201
 7419SOL    HW123677   5.871   5.781   5.505 -0.7052 -0.2721 -2.3774
 7419SOL    HW223678   5.732   5.840   5.502 -0.9689 -0.5112  0.8275
 7420SOL     OW23679   3.806   1.113   0.810 -0.4635  0.2457  0.4461
 7420SOL    HW123680   3.759   1.178   0.757  0.2520  1.3406  1.1144
 7420SOL    HW223681   3.875   1.081   0.752  0.3905  1.5273  0.7234
 7421SOL     OW23682   1.645   6.192   0.787 -0.1715  0.5851  0.2464
 7421SOL    HW123683   1.600   6.272   0.760 -2.0613 -1.1949 -2.4388
 7421SOL    HW223684   1.575   6.134   0.818  0.8863 -0.6545  0.4354
 7422SOL     OW23685   5.254   8.043   4.791 -0.0858 -0.2626  0.0463
 7422SOL    HW123686   5.180   8.086   4.834  0.0820 -1.4760  1.6770
 7422SOL    HW223687   5.315   8.025   4.862  1.0855 -0.6663 -1.0278
 7423SOL     OW23688   1.379   7.375   1.223  0.3336 -0.2379 -0.3619
 7423SOL    HW123689   1.456   7.349   1.273  0.8586 -0.0156 -1.0433
 7423SOL    HW223690   1.383   7.471   1.219  0.1580 -0.2367 -0.6020
 7424SOL     OW23691   6.195   2.082   5.835  0.7884  0.4622 -0.0880
 7424SOL    HW123692   6.289   2.089   5.815  0.8076 -1.6555 -1.0656
 7424SOL    HW223693   6.167   2.002   5.790 -0.6862 -0.9898  3.0479
 7425SOL     OW23694   1.357   4.868   5.147  0.2934  0.2517  0.1008
 7425SOL    HW123695   1.268   4.886   5.119 -0.0017  1.1594  1.5208
 7425SOL    HW223696   1.403   4.844   5.067 -0.4245  3.0013 -1.2350
 7426SOL     OW23697   6.847   7.234   4.133  0.1576  0.3703 -0.0400
 7426SOL    HW123698   6.879   7.191   4.212  0.7290  0.7567 -0.0593
 7426SOL    HW223699   6.782   7.297   4.164  0.9387  1.0666  0.1981
 7427SOL     OW23700   0.883   5.905   5.764 -0.3822  0.3514 -0.1006
 7427SOL    HW123701   0.888   5.855   5.846  1.6953  0.4429 -0.1182
 7427SOL    HW223702   0.886   5.997   5.792  0.1504  0.3836 -0.2371
 7428SOL     OW23703   2.605   7.978   5.226  0.2510 -0.1322  0.3779
 7428SOL    HW123704   2.573   8.068   5.220  1.8980  0.4154 -1.1358
 7428SOL    HW223705   2.543   7.934   5.284 -0.8250  1.8656  0.8240
 7429SOL     OW23706   5.677   6.004   0.130  0.0119  0.0960  0.5451
 7429SOL    HW123707   5.639   6.051   0.056 -0.6529 -0.6785  0.3737
 7429SOL    HW223708   5.605   5.995   0.193  0.3822  0.1369  0.9840
 7430SOL     OW23709   5.471   2.523   3.255  0.5763  0.5833  0.6021
 7430SOL    HW123710   5.495   2.534   3.163 -1.1680  1.3229  0.1909
 7430SOL    HW223711   5.552   2.494   3.298  1.4151  0.1642 -1.1584
 7431SOL     OW23712   2.635   5.731   7.582 -0.0053  0.3695 -0.6800
 7431SOL    HW123713   2.661   5.654   7.633  0.3412  0.4861 -0.6801
 7431SOL    HW223714   2.560   5.701   7.531 -1.0309  0.5277  0.6470
 7432SOL     OW23715   1.295   7.002   7.426 -0.4906 -0.1317 -0.1731
 7432SOL    HW123716   1.389   7.015   7.410 -0.7469 -1.1363 -3.0840
 7432SOL    HW223717   1.253   7.037   7.348 -2.7399  1.7981  1.7658
 7433SOL     OW23718   6.887   1.468   0.950 -0.2150 -0.7681  0.1146
 7433SOL    HW123719   6.930   1.508   1.026  1.3315 -2.2005  0.0520
 7433SOL    HW223720   6.826   1.534   0.919  1.3326  1.0494  0.7635
 7434SOL     OW23721   2.397   6.366   1.308  0.0967 -0.0667  0.2570
 7434SOL    HW123722   2.473   6.367   1.249  0.5514 -0.1055  0.8358
 7434SOL    HW223723   2.417   6.430   1.376 -0.7348  0.4856  0.0012
 7435SOL     OW23724   6.843   4.997   0.578 -0.2744  0.3966 -0.4276
 7435SOL    HW123725   6.892   5.060   0.631  1.6825 -0.4090 -1.1888
 7435SOL    HW223726   6.887   4.998   0.493 -2.3086  0.4358 -1.5499
 7436SOL     OW23727   6.115   2.928   2.996 -0.2735 -0.2471 -0.1500
 7436SOL    HW123728   6.032   2.955   3.036  1.1642  3.3025  0.8265
 7436SOL    HW223729   6.099   2.939   2.902 -0.4311  2.5888  0.0931
 7437SOL     OW23730   7.532   7.682   7.007 -0.2170 -0.0518 -0.4444
 7437SOL    HW123731   7.451   7.647   7.043  0.1829 -0.6599 -0.1101
 7437SOL    HW223732   7.574   7.606   6.965  1.2673 -0.2992  1.3760
 7438SOL     OW23733   6.152   5.827   5.001  0.0181  0.4922 -0.1557
 7438SOL    HW123734   6.241   5.797   4.980  0.7451  0.9957  1.9461
 7438SOL    HW223735   6.159   5.922   5.006 -0.8031  0.5858 -0.6241
 7439SOL     OW23736   0.477   5.775   8.034  0.0069  0.4080 -0.5109
 7439SOL    HW123737   0.429   5.696   8.056  0.0942  0.3629 -0.4823
 7439SOL    HW223738   0.542   5.784   8.103 -0.5064  0.9291 -0.0820
 7440SOL     OW23739   5.912   2.311   2.119  0.1779  0.5234 -0.3531
 7440SOL    HW123740   5.945   2.375   2.181  1.6349 -1.3410  0.9322
 7440SOL    HW223741   5.958   2.330   2.037  1.6059  0.3354  0.3771
 7441SOL     OW23742   2.057   1.184   4.455  0.1508  0.4434 -0.0866
 7441SOL    HW123743   1.968   1.178   4.419 -0.7253 -0.8468  2.1035
 7441SOL    HW223744   2.070   1.278   4.469 -1.2812  0.5947  0.4494
 7442SOL     OW23745   3.233   0.925   0.604 -0.2652  0.6677  0.3481
 7442SOL    HW123746   3.230   1.019   0.586 -2.2826  0.4340 -0.9044
 7442SOL    HW223747   3.165   0.912   0.671 -0.6578 -0.0023 -0.1706
 7443SOL     OW23748   5.152   1.081   6.408 -0.5447 -0.2701  0.5094
 7443SOL    HW123749   5.234   1.079   6.457 -0.5345  0.1096  0.5119
 7443SOL    HW223750   5.136   1.174   6.392 -0.3604 -0.4053 -0.5246
 7444SOL     OW23751   5.648   6.170   5.909  0.7471  0.0047  0.1820
 7444SOL    HW123752   5.688   6.196   5.992  1.4600 -2.4215  0.6852
 7444SOL    HW223753   5.722   6.142   5.854  0.1286 -0.2193 -0.5586
 7445SOL     OW23754   2.658   0.147   4.505  0.2969 -0.0974  0.0181
 7445SOL    HW123755   2.711   0.075   4.471 -0.8077 -0.6799 -0.5197
 7445SOL    HW223756   2.569   0.128   4.474 -0.3453  0.5448  1.3779
 7446SOL     OW23757   0.261   6.997   3.369 -0.2649  0.5945  0.0675
 7446SOL    HW123758   0.193   6.935   3.344 -0.3115  1.1195 -1.1428
 7446SOL    HW223759   0.258   6.998   3.465 -2.4271  1.1116  0.0378
 7447SOL     OW23760   7.549   6.906   1.798 -0.7290 -0.2766  0.3072
 7447SOL    HW123761   7.631   6.861   1.781  0.6019  1.9130  0.6065
 7447SOL    HW223762   7.572   6.976   1.858 -2.7237  0.7364 -0.0301
 7448SOL     OW23763   8.034   2.584   6.020 -0.4527  0.3145 -0.9271
 7448SOL    HW123764   7.958   2.531   6.043 -0.7178  0.8024 -0.6563
 7448SOL    HW223765   8.080   2.598   6.103  0.4327 -0.7202 -1.2189
 7449SOL     OW23766   1.979   0.948   5.855  0.1693 -0.3989  0.1094
 7449SOL    HW123767   1.933   0.880   5.805 -0.1575  0.4036 -0.6932
 7449SOL    HW223768   2.040   0.986   5.793 -1.8795  2.2400 -0.4744
 7450SOL     OW23769   3.870   6.616   6.114  0.0361  0.2240  0.0207
 7450SOL    HW123770   3.920   6.686   6.073  0.6513  0.4471  1.1361
 7450SOL    HW223771   3.789   6.658   6.144 -1.1069 -0.2212 -2.1716
 7451SOL     OW23772   7.851   5.348   1.183 -0.2269 -0.8200  0.0021
 7451SOL    HW123773   7.944   5.332   1.163 -0.5336  0.5806 -3.0591
 7451SOL    HW223774   7.852   5.429   1.234  0.2156 -0.1627 -1.0090
 7452SOL     OW23775   2.961   2.936   0.368 -0.5307  0.5020 -0.4463
 7452SOL    HW123776   2.927   2.976   0.288  0.5275 -1.9517 -2.2491
 7452SOL    HW223777   3.056   2.930   0.354 -0.3567 -0.3029  0.8623
 7453SOL     OW23778   0.886   0.926   2.185 -0.1918 -0.4625  0.6489
 7453SOL    HW123779   0.826   0.863   2.147  0.6373 -0.6502 -0.3988
 7453SOL    HW223780   0.912   0.888   2.269 -1.0223 -0.6747  0.8165
 7454SOL     OW23781   4.375   7.526   5.902 -0.2972  0.3379 -0.8718
 7454SOL    HW123782   4.391   7.620   5.898 -0.3881  0.7123  3.1723
 7454SOL    HW223783   4.291   7.514   5.859 -1.6571  2.6499  0.8986
 7455SOL     OW23784   5.983   2.457   1.623  0.6600 -0.2535  0.5661
 7455SOL    HW123785   5.979   2.551   1.640  2.7542 -0.0462  0.1340
 7455SOL    HW223786   5.893   2.433   1.597 -0.4518  1.1636  2.7818
 7456SOL     OW23787   2.956   0.137   3.958 -0.0690  0.8129  0.0817
 7456SOL    HW123788   2.895   0.073   3.994  2.0980 -1.8853 -0.7618
 7456SOL    HW223789   3.024   0.147   4.025  0.3358  1.1504 -0.3702
 7457SOL     OW23790   3.051   7.089   0.414 -0.5528  0.0206 -0.3108
 7457SOL    HW123791   3.070   7.007   0.458 -0.4576  0.2332  0.0475
 7457SOL    HW223792   2.988   7.066   0.346 -2.3751  0.0214  1.2943
 7458SOL     OW23793   3.214   1.486   6.194  0.3557 -0.7112  0.0266
 7458SOL    HW123794   3.149   1.445   6.251  0.3403 -0.8365 -0.0812
 7458SOL    HW223795   3.286   1.510   6.253  0.3696 -0.9024  0.0891
 7459SOL     OW23796   6.313   5.656   0.670  0.2121  0.0203  0.1484
 7459SOL    HW123797   6.234   5.647   0.618  0.1887  1.2775 -0.0760
 7459SOL    HW223798   6.319   5.575   0.720 -1.7961  0.3367  0.9696
 7460SOL     OW23799   0.078   0.627   5.140 -0.4060 -0.1263 -0.0574
 7460SOL    HW123800   0.118   0.548   5.102 -0.1986 -0.1976  0.3000
 7460SOL    HW223801   0.151   0.689   5.146 -0.6051  0.1520 -0.4906
 7461SOL     OW23802   7.516   7.386   1.990  0.1469  0.3551  0.2017
 7461SOL    HW123803   7.521   7.309   1.934  1.0447 -0.7887  1.7762
 7461SOL    HW223804   7.488   7.457   1.931 -0.1482 -1.0262 -1.3978
 7462SOL     OW23805   0.516   2.330   5.203 -0.2623  0.1459  0.4622
 7462SOL    HW123806   0.444   2.314   5.142  0.0296  0.6657 -0.0333
 7462SOL    HW223807   0.503   2.267   5.273 -1.6638  0.7629  0.7891
 7463SOL     OW23808   2.643   0.692   1.669  0.3965 -0.2402  1.1477
 7463SOL    HW123809   2.726   0.730   1.696 -0.2096  0.7458  1.6891
 7463SOL    HW223810   2.660   0.655   1.583  1.2493  0.4649  1.0023
 7464SOL     OW23811   5.827   0.464   0.410 -0.4677 -0.1224  0.3407
 7464SOL    HW123812   5.921   0.455   0.423 -0.4303 -2.2030 -0.8025
 7464SOL    HW223813   5.788   0.423   0.488 -0.3232 -2.5257 -0.7389
 7465SOL     OW23814   6.090   7.166   5.999  0.4867  0.1726 -0.0543
 7465SOL    HW123815   6.151   7.204   5.936  1.8772 -0.5906  0.7811
 7465SOL    HW223816   6.039   7.241   6.031 -0.2674  0.5795 -2.0231
 7466SOL     OW23817   5.090   5.271   0.200 -0.5136 -0.5295  0.2437
 7466SOL    HW123818   5.082   5.179   0.227  2.2045 -1.0355 -0.3037
 7466SOL    HW223819   5.118   5.267   0.109  3.0746  0.5671  1.1081
 7467SOL     OW23820   4.470   4.188   0.109 -0.1301 -0.7078 -0.2629
 7467SOL    HW123821   4.494   4.276   0.080 -0.4413 -0.5083  0.0789
 7467SOL    HW223822   4.529   4.130   0.060  0.5084 -0.2759 -0.0231
 7468SOL     OW23823   4.936   0.453   2.266  0.0055  0.0006 -0.3896
 7468SOL    HW123824   4.989   0.524   2.228 -0.5008  0.5771 -0.0409
 7468SOL    HW223825   4.845   0.482   2.253 -0.2485 -1.1725 -1.3534
 7469SOL     OW23826   5.489   0.174   6.992  0.3003  0.3625  0.2006
 7469SOL    HW123827   5.524   0.240   7.051  1.6259 -1.3346  1.3810
 7469SOL    HW223828   5.562   0.116   6.974  0.1454  1.0722 -3.6350
 7470SOL     OW23829   1.739   3.785   2.446 -0.6827  0.0734  0.2099
 7470SOL    HW123830   1.657   3.827   2.472  0.6704  2.3292  1.1436
 7470SOL    HW223831   1.802   3.814   2.511  1.4826  0.7814 -2.0589
 7471SOL     OW23832   7.314   2.077   1.233 -0.2525  0.3079 -0.0325
 7471SOL    HW123833   7.255   2.094   1.159 -0.7252 -0.5789  0.1314
 7471SOL    HW223834   7.394   2.042   1.193 -0.9469 -1.3278 -0.0763
 7472SOL     OW23835   3.735   2.165   4.671  0.4074  0.5906  0.4783
 7472SOL    HW123836   3.813   2.178   4.724  0.8660  0.4970 -0.1541
 7472SOL    HW223837   3.750   2.220   4.593  0.9804 -1.2769 -0.8099
 7473SOL     OW23838   2.254   6.912   2.418 -0.5743 -0.0950 -0.2823
 7473SOL    HW123839   2.181   6.931   2.359 -0.6681  0.0739 -0.1123
 7473SOL    HW223840   2.323   6.974   2.392 -0.5509 -0.1393 -0.3287
 7474SOL     OW23841   6.751   2.779   4.604  0.2434  0.3671 -0.8443
 7474SOL    HW123842   6.683   2.837   4.568 -0.2642  0.2290 -0.1373
 7474SOL    HW223843   6.751   2.703   4.546 -3.9628 -2.1403  1.9060
 7475SOL     OW23844   1.941   7.012   6.347  0.1572  0.1214  0.2094
 7475SOL    HW123845   1.995   7.089   6.366  1.1941 -0.8583  1.3971
 7475SOL    HW223846   2.003   6.940   6.341 -0.4648 -0.3360 -3.4046
 7476SOL     OW23847   6.295   5.145   0.913 -0.1847  0.2613 -0.3030
 7476SOL    HW123848   6.211   5.189   0.925 -0.7290 -0.6757 -0.5283
 7476SOL    HW223849   6.330   5.134   1.001 -1.0560 -0.7548 -0.0752
 7477SOL     OW23850   3.672   7.971   3.074  0.1910  0.5510  0.2176
 7477SOL    HW123851   3.649   7.923   2.994  1.7596  1.0078 -0.5651
 7477SOL    HW223852   3.688   7.902   3.138  2.7433 -0.1273 -0.9860
 7478SOL     OW23853   7.243   5.770   1.856  0.2492  0.3769 -0.8003
 7478SOL    HW123854   7.212   5.846   1.807  0.5996  0.9003 -0.2219
 7478SOL    HW223855   7.263   5.804   1.944 -0.2601 -0.5196 -0.3243
 7479SOL     OW23856   2.148   1.596   7.009 -0.2326 -0.1135 -0.3040
 7479SOL    HW123857   2.217   1.609   6.944  0.1594  0.0270  0.1340
 7479SOL    HW223858   2.066   1.608   6.960  0.0658  2.1205 -0.3411
 7480SOL     OW23859   5.423   3.427   3.791 -0.0953  0.2418 -0.3291
 7480SOL    HW123860   5.357   3.489   3.822  0.0323  0.6050 -0.7724
 7480SOL    HW223861   5.493   3.482   3.756 -0.3798 -0.1511 -1.5651
 7481SOL     OW23862   6.328   4.191   1.166  0.0674  0.0531  0.2040
 7481SOL    HW123863   6.421   4.177   1.149 -0.1742 -0.2955 -0.8722
 7481SOL    HW223864   6.300   4.112   1.213  0.3487  0.2345  0.6789
 7482SOL     OW23865   4.813   4.335   2.502  0.4098  0.3122  0.2567
 7482SOL    HW123866   4.813   4.430   2.492 -0.6377  0.1484 -1.6028
 7482SOL    HW223867   4.905   4.310   2.497  0.6621  1.1780  0.4380
 7483SOL     OW23868   3.190   7.792   3.298  0.3750 -0.0042  0.3686
 7483SOL    HW123869   3.269   7.765   3.251  0.5256 -0.2810  0.7627
 7483SOL    HW223870   3.203   7.756   3.387 -1.1026 -1.8296 -0.0810
 7484SOL     OW23871   1.259   0.705   0.200  0.2267 -0.5302  0.2966
 7484SOL    HW123872   1.350   0.723   0.176  0.6691 -0.8791  1.6110
 7484SOL    HW223873   1.218   0.791   0.207  0.6140 -0.3411  0.2667
 7485SOL     OW23874   2.202   0.982   6.031  0.4909  0.0305 -0.2423
 7485SOL    HW123875   2.268   1.044   6.001  0.9301 -0.9532 -1.3826
 7485SOL    HW223876   2.137   0.980   5.961 -0.2032  0.1766  0.3827
 7486SOL     OW23877   7.943   7.457   2.156 -0.0724  0.1714  1.0275
 7486SOL    HW123878   7.923   7.408   2.235 -0.4589 -0.8644  0.3142
 7486SOL    HW223879   8.020   7.413   2.119 -1.7348 -1.3665 -0.7937
 7487SOL     OW23880   5.050   0.906   5.473 -0.3783  0.2769  0.3441
 7487SOL    HW123881   4.996   0.925   5.396  0.4100 -1.4873 -0.6808
 7487SOL    HW223882   4.986   0.886   5.542 -1.0757 -0.7510 -0.5735
 7488SOL     OW23883   2.589   5.219   3.964 -0.4991 -1.1823  0.3264
 7488SOL    HW123884   2.594   5.212   4.060  0.5969 -1.1460  0.2866
 7488SOL    HW223885   2.497   5.239   3.947 -0.6027 -0.6212  1.4128
 7489SOL     OW23886   1.700   1.368   0.913 -0.1620 -0.6575  0.7482
 7489SOL    HW123887   1.737   1.359   1.001 -1.7002 -2.1524  1.3050
 7489SOL    HW223888   1.642   1.444   0.920 -0.2958 -0.7824  1.0428
 7490SOL     OW23889   0.289   1.137   5.727 -0.2392 -0.5343  0.0083
 7490SOL    HW123890   0.223   1.202   5.749 -1.4045 -0.7112 -2.5639
 7490SOL    HW223891   0.347   1.181   5.665  0.4974 -1.1779  0.2195
 7491SOL     OW23892   6.165   5.807   7.336 -0.1291 -0.2434  0.3534
 7491SOL    HW123893   6.089   5.748   7.332  1.1016 -1.9533  1.0510
 7491SOL    HW223894   6.235   5.759   7.293  0.6818  1.1672  0.0319
 7492SOL     OW23895   6.036   5.018   6.098 -0.5007 -0.6020  0.2970
 7492SOL    HW123896   6.117   5.062   6.074 -0.6172 -1.1621 -1.2486
 7492SOL    HW223897   6.060   4.961   6.171 -0.1351  1.2064  1.6897
 7493SOL     OW23898   2.192   1.645   2.199  0.1017  1.0813 -0.1970
 7493SOL    HW123899   2.217   1.557   2.171  3.4224  1.8308  0.0408
 7493SOL    HW223900   2.166   1.635   2.290 -1.4839  0.1085 -0.7156
 7494SOL     OW23901   0.635   6.599   3.060  0.2543  0.0131 -0.2669
 7494SOL    HW123902   0.599   6.672   3.110  1.0843 -0.4996  1.1352
 7494SOL    HW223903   0.571   6.529   3.071  0.0216  0.1574 -0.6592
 7495SOL     OW23904   2.639   1.202   2.276 -0.4728 -0.1050  0.0945
 7495SOL    HW123905   2.628   1.281   2.223 -0.1319 -0.4014 -0.4299
 7495SOL    HW223906   2.675   1.233   2.359  0.5141  0.2042 -0.4320
 7496SOL     OW23907   1.888   0.201   4.661  0.0993  0.5927  0.1040
 7496SOL    HW123908   1.837   0.278   4.686 -1.1863 -0.0196 -0.5290
 7496SOL    HW223909   1.895   0.206   4.566  0.7236  0.3450  0.1314
 7497SOL     OW23910   4.423   2.230   5.094 -0.5443 -0.9786 -0.4464
 7497SOL    HW123911   4.517   2.244   5.083 -0.5948 -1.8219 -2.2188
 7497SOL    HW223912   4.383   2.294   5.035 -1.1570  0.1809  1.1587
 7498SOL     OW23913   6.780   4.827   4.514 -0.0578  0.3739  0.4371
 7498SOL    HW123914   6.873   4.837   4.536  0.0319  0.6633 -0.0811
 7498SOL    HW223915   6.776   4.748   4.461 -0.1972  0.0138  0.9699
 7499SOL     OW23916   4.018   1.609   1.841  0.2913 -0.3137  0.2384
 7499SOL    HW123917   4.022   1.652   1.927  0.2752  1.0917 -0.4286
 7499SOL    HW223918   3.952   1.541   1.851  0.2412 -0.1257  1.3153
 7500SOL     OW23919   1.455   7.310   7.237  0.3967  0.4177 -0.1125
 7500SOL    HW123920   1.360   7.313   7.228  0.2775 -1.4072  0.0237
 7500SOL    HW223921   1.481   7.236   7.182  1.4755 -0.4861  1.5282
 7501SOL     OW23922   3.364   4.271   0.387  0.4067 -0.2416  0.4419
 7501SOL    HW123923   3.306   4.198   0.365  0.1090 -0.0001  0.4231
 7501SOL    HW223924   3.452   4.233   0.386  0.1420 -0.9867  1.9536
 7502SOL     OW23925   4.268   0.596   0.329 -0.9303  0.3862 -0.1362
 7502SOL    HW123926   4.212   0.674   0.327 -0.5761  0.6433 -0.1909
 7502SOL    HW223927   4.297   0.590   0.420  0.5013  1.3887 -0.4783
 7503SOL     OW23928   0.038   3.299   2.631 -0.5169  0.2361  0.3751
 7503SOL    HW123929  -0.035   3.321   2.688 -0.5984  1.3848 -0.1579
 7503SOL    HW223930   0.075   3.383   2.604 -0.9018 -0.2419 -1.8286
 7504SOL     OW23931   0.593   0.130   1.853 -0.0869  0.7531 -0.1125
 7504SOL    HW123932   0.605   0.123   1.948  0.4731 -1.4656 -0.2861
 7504SOL    HW223933   0.499   0.128   1.840 -0.2548 -3.2341  0.3039
 7505SOL     OW23934   7.841   7.422   3.736  0.4179 -0.4736 -0.0497
 7505SOL    HW123935   7.927   7.380   3.746  0.4363 -0.8130 -1.4821
 7505SOL    HW223936   7.815   7.402   3.646  0.0530  1.8945 -0.5251
 7506SOL     OW23937   5.418   0.445   7.511 -0.2059  0.4887  0.7758
 7506SOL    HW123938   5.482   0.503   7.552  3.1325 -0.9555 -1.9124
 7506SOL    HW223939   5.453   0.357   7.525 -1.9410 -0.4311 -0.3408
 7507SOL     OW23940   4.213   0.556   5.849  0.5578  0.0664  0.0181
 7507SOL    HW123941   4.132   0.581   5.893  0.2388 -1.2294  0.2031
 7507SOL    HW223942   4.245   0.481   5.898  1.0990 -0.3384 -0.9235
 7508SOL     OW23943   6.019   4.128   7.120 -0.1962 -0.6653  0.5351
 7508SOL    HW123944   6.084   4.147   7.188 -0.2946  2.4645 -0.0737
 7508SOL    HW223945   5.972   4.051   7.151  1.3319 -0.7537  2.8187
 7509SOL     OW23946   0.262   1.603   4.421 -0.5595  1.2355 -0.0008
 7509SOL    HW123947   0.199   1.535   4.445 -0.2381  0.8552 -0.2223
 7509SOL    HW223948   0.327   1.558   4.368  0.7467  1.2865  1.4887
 7510SOL     OW23949   5.364   3.067   2.171  0.2030  0.5206 -0.7598
 7510SOL    HW123950   5.335   3.126   2.241  0.5517 -0.2357  0.0364
 7510SOL    HW223951   5.435   3.114   2.129  1.2951  0.1952  0.6475
 7511SOL     OW23952   2.421   3.655   4.218 -0.7632  0.6215  0.1557
 7511SOL    HW123953   2.487   3.617   4.276 -0.9659 -1.4427 -0.8738
 7511SOL    HW223954   2.378   3.722   4.271  0.4436  0.2536  1.6784
 7512SOL     OW23955   1.569   4.480   7.675 -0.4909 -0.2471  0.2834
 7512SOL    HW123956   1.509   4.415   7.639 -0.9155  0.5036 -0.4011
 7512SOL    HW223957   1.554   4.559   7.622  1.8582 -0.3431 -0.6274
 7513SOL     OW23958   5.107   4.208   4.084 -0.0526 -0.1452  0.0448
 7513SOL    HW123959   5.158   4.274   4.131  2.1636 -1.2510 -0.6317
 7513SOL    HW223960   5.102   4.134   4.145 -2.0616  0.4006  0.6011
 7514SOL     OW23961   1.669   6.242   2.297  0.0524 -0.2727  0.3329
 7514SOL    HW123962   1.644   6.175   2.361 -0.3283 -0.4270  0.0218
 7514SOL    HW223963   1.586   6.275   2.262  0.1807  1.1384  1.2644
 7515SOL     OW23964   6.051   0.533   0.557 -0.0574 -0.2056  0.1930
 7515SOL    HW123965   6.074   0.568   0.471 -1.4436  0.4008  0.0344
 7515SOL    HW223966   6.117   0.568   0.616  0.3542  0.1587 -0.4678
 7516SOL     OW23967   6.792   1.235   7.960  0.4583  0.0461  0.0170
 7516SOL    HW123968   6.781   1.142   7.980 -2.2740  0.0133 -1.2156
 7516SOL    HW223969   6.777   1.279   8.044 -1.2144 -0.5318  0.0693
 7517SOL     OW23970   5.943   6.054   2.021 -0.0103  0.2600  0.5360
 7517SOL    HW123971   5.884   6.065   1.947 -0.2989 -1.4763  0.4672
 7517SOL    HW223972   6.028   6.084   1.989 -0.1462 -0.4078 -0.4907
 7518SOL     OW23973   4.728   7.332   1.451 -0.2641 -0.1099  0.3047
 7518SOL    HW123974   4.645   7.321   1.499 -0.5754 -0.3074 -0.2678
 7518SOL    HW223975   4.790   7.361   1.518 -0.3897 -1.5243  1.0950
 7519SOL     OW23976   3.963   1.388   7.248  0.4346  0.4362 -0.1456
 7519SOL    HW123977   3.918   1.438   7.317  2.4110  1.0268  0.7714
 7519SOL    HW223978   4.056   1.393   7.271  0.8591 -2.5711 -0.7474
 7520SOL     OW23979   7.139   5.136   2.186 -0.0027  0.5158  0.0150
 7520SOL    HW123980   7.102   5.138   2.274  0.4383  0.0383  0.2101
 7520SOL    HW223981   7.088   5.069   2.140 -0.2388  0.7710 -0.1014
 7521SOL     OW23982   4.756   3.587   3.332  0.5215  0.2696  0.5920
 7521SOL    HW123983   4.704   3.572   3.253  0.7737 -0.0698  0.4883
 7521SOL    HW223984   4.789   3.501   3.356 -0.1081  0.2538  1.4618
 7522SOL     OW23985   6.728   3.473   3.765 -0.1145  0.2810  0.0515
 7522SOL    HW123986   6.811   3.444   3.728  0.1854 -0.0760  0.9653
 7522SOL    HW223987   6.747   3.485   3.858 -1.5640 -1.7894  0.6947
 7523SOL     OW23988   1.159   4.419   7.670  0.1520  0.6625 -0.6411
 7523SOL    HW123989   1.242   4.372   7.663  0.7208  1.3932  0.6858
 7523SOL    HW223990   1.095   4.353   7.696  0.6183  0.3269 -0.3233
 7524SOL     OW23991   2.746   0.519   2.171 -0.1537  0.0074  0.3882
 7524SOL    HW123992   2.711   0.494   2.086 -1.5203 -3.0802  1.7087
 7524SOL    HW223993   2.690   0.591   2.200 -1.2854 -0.5682 -0.3058
 7525SOL     OW23994   1.312   3.818   1.304  0.3387  0.1762 -0.1602
 7525SOL    HW123995   1.373   3.886   1.330  1.6392 -1.0736  0.1857
 7525SOL    HW223996   1.338   3.796   1.214  0.4036 -0.3630 -0.0118
 7526SOL     OW23997   7.355   0.881   4.057  0.5815  0.5292  0.8421
 7526SOL    HW123998   7.343   0.819   3.984 -2.1204 -1.5262  2.8287
 7526SOL    HW223999   7.450   0.896   4.060  0.7982  1.3649 -3.4887
 7527SOL     OW24000   1.447   2.311   6.858 -0.4190  0.8558  0.6638
 7527SOL    HW124001   1.364   2.313   6.905  0.4096  1.4325  2.1748
 7527SOL    HW224002   1.438   2.379   6.791 -1.8895 -0.4711 -0.5663
 7528SOL     OW24003   7.077   0.355   1.547 -0.3496  0.6585  0.5412
 7528SOL    HW124004   7.054   0.288   1.612  0.4271 -0.0219  0.1285
 7528SOL    HW224005   7.145   0.407   1.590  2.4774 -1.6991 -0.7784
 7529SOL     OW24006   3.658   2.112   5.085  0.2259  0.2182 -0.1958
 7529SOL    HW124007   3.729   2.176   5.079 -0.5692  1.1422  0.0235
 7529SOL    HW224008   3.594   2.142   5.020 -0.2682 -0.2105  0.0972
 7530SOL     OW24009   2.175   5.567   7.626 -0.3385  0.2723  0.2319
 7530SOL    HW124010   2.141   5.560   7.536 -1.7683  0.4562  0.7403
 7530SOL    HW224011   2.122   5.635   7.666  1.0389  0.9943  0.9123
 7531SOL     OW24012   7.354   7.989   7.724  0.1965  0.1600 -0.4688
 7531SOL    HW124013   7.397   8.051   7.783  1.0566 -0.6451 -0.2122
 7531SOL    HW224014   7.283   7.951   7.776 -0.4312  1.0298 -0.6798
 7532SOL     OW24015   0.754   7.848   6.400 -0.6620 -0.3059 -0.3277
 7532SOL    HW124016   0.705   7.767   6.413  1.1567 -1.2440  1.3134
 7532SOL    HW224017   0.729   7.903   6.475  0.4969 -0.6793  0.3624
 7533SOL     OW24018   6.299   6.328   0.130 -0.2053 -0.2181 -0.1352
 7533SOL    HW124019   6.260   6.372   0.205  0.1272  0.7792 -0.5332
 7533SOL    HW224020   6.253   6.244   0.125 -1.7332  0.5937 -0.1211
 7534SOL     OW24021   0.201   7.255   2.499 -0.7057 -0.2709 -0.4326
 7534SOL    HW124022   0.219   7.342   2.463  0.9985 -0.0129  0.9394
 7534SOL    HW224023   0.278   7.203   2.477 -1.0366 -0.9964  0.0916
 7535SOL     OW24024   7.168   7.176   6.849 -0.0052 -0.3541  0.6416
 7535SOL    HW124025   7.125   7.217   6.925  0.0832 -0.1359  0.5751
 7535SOL    HW224026   7.110   7.197   6.775 -0.1480 -0.6605  0.6675
 7536SOL     OW24027   6.997   3.688   5.513  0.5066 -0.0831  0.4285
 7536SOL    HW124028   7.079   3.638   5.511  0.2376 -0.4875 -0.7912
 7536SOL    HW224029   7.025   3.780   5.505  0.8313 -0.2349 -0.1959
 7537SOL     OW24030   3.831   0.304   0.141  0.4011 -0.2478  0.3039
 7537SOL    HW124031   3.868   0.391   0.127  0.5164 -0.5872 -1.9399
 7537SOL    HW224032   3.736   0.317   0.137  0.4039 -0.1407  0.5933
 7538SOL     OW24033   5.952   6.906   6.395  0.0296  0.6843 -0.3785
 7538SOL    HW124034   5.864   6.871   6.413 -0.1253  0.2487 -1.8436
 7538SOL    HW224035   5.962   6.897   6.300  1.9305  0.1149 -0.1555
 7539SOL     OW24036   3.269   5.926   0.324 -0.0986 -0.6776 -0.2001
 7539SOL    HW124037   3.279   5.872   0.402 -0.5106  1.2292  1.2602
 7539SOL    HW224038   3.186   5.898   0.285 -0.1104 -1.3455  0.2991
 7540SOL     OW24039   7.875   7.555   0.838 -0.2534  0.8597 -0.0183
 7540SOL    HW124040   7.834   7.479   0.879 -1.3827  0.4809 -1.7531
 7540SOL    HW224041   7.960   7.524   0.807  0.6941  1.1974  2.0843
 7541SOL     OW24042   0.350   0.133   2.580 -0.1204  0.7349  0.0988
 7541SOL    HW124043   0.401   0.134   2.661 -1.1264 -0.6432  0.7933
 7541SOL    HW224044   0.415   0.118   2.511  0.8517  2.6711  0.5081
 7542SOL     OW24045   6.809   1.868   7.318  0.0545  0.1056 -0.0427
 7542SOL    HW124046   6.848   1.868   7.405  0.5833  0.4736 -0.2772
 7542SOL    HW224047   6.860   1.804   7.268 -0.7341 -0.6765  0.1232
 7543SOL     OW24048   5.259   7.526   7.433 -0.2585  0.2900  0.2125
 7543SOL    HW124049   5.176   7.500   7.394  0.0634  0.1843 -0.4188
 7543SOL    HW224050   5.287   7.603   7.384 -0.1935  0.5934  0.7139
 7544SOL     OW24051   7.244   4.034   1.101 -0.1259 -0.1771 -0.3669
 7544SOL    HW124052   7.183   4.061   1.169 -0.5774 -0.0951 -0.7932
 7544SOL    HW224053   7.317   3.995   1.148  0.3722  1.4257  0.2409
 7545SOL     OW24054   5.301   4.898   2.631  0.4829 -0.0092  0.3829
 7545SOL    HW124055   5.324   4.859   2.715  1.2602 -1.7238 -0.5802
 7545SOL    HW224056   5.383   4.935   2.598  0.1549  0.7718  0.4112
 7546SOL     OW24057   6.832   2.936   3.913  0.1270 -0.3315 -0.8000
 7546SOL    HW124058   6.882   2.969   3.987  0.4311 -1.7807 -0.3481
 7546SOL    HW224059   6.891   2.945   3.838  0.2491  0.0196 -0.6625
 7547SOL     OW24060   7.518   4.376   6.053 -0.0790 -0.0412 -0.0926
 7547SOL    HW124061   7.601   4.423   6.038 -0.5006  0.9542  0.5707
 7547SOL    HW224062   7.544   4.285   6.066  0.7579 -0.0355 -1.5156
 7548SOL     OW24063   2.234   1.933   2.278 -0.0319  0.2748 -0.0220
 7548SOL    HW124064   2.244   1.845   2.242 -1.0032  0.9585 -2.0814
 7548SOL    HW224065   2.186   1.982   2.212  0.9650  2.5507  0.7988
 7549SOL     OW24066   0.728   0.533   0.285  0.1191  0.1073  0.0212
 7549SOL    HW124067   0.645   0.533   0.237 -0.5252 -0.3521  1.1024
 7549SOL    HW224068   0.785   0.478   0.232  0.1818  1.4633 -1.4272
 7550SOL     OW24069   7.408   6.135   2.977 -0.4314  0.1498  0.0556
 7550SOL    HW124070   7.486   6.189   2.964 -1.1308  1.0393 -0.5571
 7550SOL    HW224071   7.365   6.174   3.053 -0.7788  0.2659 -0.1987
 7551SOL     OW24072   1.154   2.973   5.545 -0.5238  0.5472  0.3136
 7551SOL    HW124073   1.080   2.921   5.578 -0.9655 -0.3592 -1.9361
 7551SOL    HW224074   1.145   3.058   5.589 -1.9233 -0.0876  1.3392
 7552SOL     OW24075   2.376   2.233   6.251  0.0017 -0.4528  0.3272
 7552SOL    HW124076   2.460   2.193   6.227  0.7795  1.2104  0.1320
 7552SOL    HW224077   2.344   2.272   6.169 -0.3092  0.0363  0.6754
 7553SOL     OW24078   0.216   0.628   6.052  0.3726 -0.7287  0.0294
 7553SOL    HW124079   0.179   0.716   6.056 -0.1961 -0.9699  0.2722
 7553SOL    HW224080   0.290   0.629   6.113 -0.3822 -0.7574  0.9728
 7554SOL     OW24081   3.760   6.278   4.207  0.4278  0.1381  0.1881
 7554SOL    HW124082   3.718   6.300   4.290 -1.1179 -1.2546 -0.1660
 7554SOL    HW224083   3.775   6.363   4.164  0.0887  0.7964  1.3290
 7555SOL     OW24084   6.495   7.214   5.281  0.2187  0.4170  0.0494
 7555SOL    HW124085   6.457   7.131   5.254 -0.8571  0.4576  1.3341
 7555SOL    HW224086   6.476   7.220   5.374  2.3674  1.0162  0.4937
 7556SOL     OW24087   0.328   4.627   7.513 -0.0840 -0.2153 -0.8428
 7556SOL    HW124088   0.406   4.677   7.492 -0.5582  1.1256  0.4194
 7556SOL    HW224089   0.360   4.540   7.537  1.1973  0.7797  1.2227
 7557SOL     OW24090   7.239   1.186   0.034 -1.0442  0.2049 -0.3350
 7557SOL    HW124091   7.264   1.230  -0.047  0.6241 -1.3989 -0.7577
 7557SOL    HW224092   7.311   1.205   0.095 -1.4905  0.0622  0.2474
 7558SOL     OW24093   0.054   1.046   1.072 -0.4763 -0.2422  0.1958
 7558SOL    HW124094   0.108   0.975   1.106 -0.5742 -0.7515 -0.6975
 7558SOL    HW224095   0.038   1.024   0.980  1.2728  1.9952 -0.7367
 7559SOL     OW24096   7.418   3.623   7.760  0.2197  0.8863  0.6187
 7559SOL    HW124097   7.404   3.549   7.700 -0.4461  2.0665 -0.7578
 7559SOL    HW224098   7.390   3.591   7.845  1.8484 -1.0785  0.4801
 7560SOL     OW24099   4.141   2.403   2.118  0.4173  0.4304 -0.4447
 7560SOL    HW124100   4.183   2.478   2.076  0.8605  0.4140 -0.0325
 7560SOL    HW224101   4.174   2.327   2.070 -1.4381  0.5650 -2.1009
 7561SOL     OW24102   7.265   2.425   6.543  0.4553 -0.1964  0.2011
 7561SOL    HW124103   7.212   2.458   6.471 -0.9353 -0.3906  1.1056
 7561SOL    HW224104   7.296   2.339   6.513 -2.2371 -1.4496  0.7709
 7562SOL     OW24105   0.496   2.859   2.513  0.1028 -0.3867 -0.0631
 7562SOL    HW124106   0.465   2.950   2.516  0.0647 -0.4131  0.4268
 7562SOL    HW224107   0.579   2.864   2.465 -0.0666 -0.1451 -0.3405
 7563SOL     OW24108   3.404   5.850   0.078  0.4189  0.0515  0.2530
 7563SOL    HW124109   3.346   5.848   0.001  0.9227  1.3783 -0.1945
 7563SOL    HW224110   3.345   5.866   0.152  0.1987  1.7746 -0.2413
 7564SOL     OW24111   3.699   0.356   0.493 -0.5578  0.5024 -0.1118
 7564SOL    HW124112   3.788   0.329   0.470 -0.3782  0.4759  0.6116
 7564SOL    HW224113   3.644   0.285   0.462 -0.5196  1.2605 -2.1038
 7565SOL     OW24114   5.846   1.466   3.244 -0.3851 -0.0114  0.3792
 7565SOL    HW124115   5.823   1.420   3.324  0.6215  2.8347  2.4806
 7565SOL    HW224116   5.767   1.516   3.221 -0.3624 -0.0659  0.1819
 7566SOL     OW24117   3.597   2.060   1.645 -0.0769  0.6917 -0.3113
 7566SOL    HW124118   3.672   2.113   1.673 -0.9221  1.8267 -0.1512
 7566SOL    HW224119   3.574   2.094   1.559 -0.6247  0.5676 -0.2137
 7567SOL     OW24120   1.842   2.645   3.723 -0.8042  0.0266 -0.1359
 7567SOL    HW124121   1.773   2.589   3.758 -2.4351  1.4507 -0.8997
 7567SOL    HW224122   1.809   2.734   3.733  0.4223  0.7080 -1.5545
 7568SOL     OW24123   6.383   7.638   6.200  0.3028 -0.5758 -0.0700
 7568SOL    HW124124   6.350   7.709   6.255  1.1055 -0.6607  0.5495
 7568SOL    HW224125   6.319   7.568   6.209  0.1519 -0.3851  0.3319
 7569SOL     OW24126   3.209   4.652   3.884  0.0260 -0.1979 -0.1259
 7569SOL    HW124127   3.285   4.608   3.922 -1.3166 -1.6124  1.0557
 7569SOL    HW224128   3.165   4.694   3.959 -0.2501  0.8066 -0.8199
 7570SOL     OW24129   2.108   1.144   6.723  0.0071  0.0095 -0.3766
 7570SOL    HW124130   2.123   1.223   6.775  0.1290  0.2587 -0.7903
 7570SOL    HW224131   2.083   1.078   6.788 -1.8910  0.8429 -0.2172
 7571SOL     OW24132   3.954   5.526   4.446 -0.0511 -0.0468  0.5995
 7571SOL    HW124133   3.993   5.613   4.454 -1.9661  0.9658 -0.4451
 7571SOL    HW224134   3.961   5.505   4.353  0.4750 -1.0752  0.8571
 7572SOL     OW24135   1.793   4.468   0.462 -0.8513 -0.1098 -0.3292
 7572SOL    HW124136   1.840   4.384   0.463  0.3314  0.5102 -1.4776
 7572SOL    HW224137   1.783   4.489   0.369 -1.5642  0.8055 -0.0641
 7573SOL     OW24138   4.493   2.465   7.645  0.6039 -0.3088  0.1064
 7573SOL    HW124139   4.505   2.504   7.558 -0.3095  0.9244  0.5131
 7573SOL    HW224140   4.426   2.398   7.632  0.4206 -0.0800 -0.1309
 7574SOL     OW24141   4.748   5.995   2.515 -0.0768  0.3395  0.1185
 7574SOL    HW124142   4.669   5.961   2.557 -1.2474  0.7729 -1.6034
 7574SOL    HW224143   4.800   5.917   2.496 -1.8402 -0.4245 -2.0536
 7575SOL     OW24144   6.927   7.648   2.259  0.2955  0.4001 -0.0709
 7575SOL    HW124145   6.917   7.573   2.200 -0.0369  1.7305 -1.7507
 7575SOL    HW224146   6.840   7.661   2.297  0.2011  0.3368 -0.2661
 7576SOL     OW24147   5.214   7.792   6.178  0.2306  0.0736  0.2989
 7576SOL    HW124148   5.225   7.721   6.241  1.2547 -0.2071 -0.1718
 7576SOL    HW224149   5.292   7.847   6.190 -0.1689  0.6948  0.1205
 7577SOL     OW24150   6.848   0.670   7.087 -0.6319 -0.2445 -0.0157
 7577SOL    HW124151   6.927   0.671   7.034 -1.3552 -0.0064 -1.1108
 7577SOL    HW224152   6.803   0.590   7.061 -1.0365 -0.0817  0.1723
 7578SOL     OW24153   5.689   0.285   3.850  0.8151 -0.2717 -0.0379
 7578SOL    HW124154   5.688   0.236   3.767 -2.1365  0.6044 -0.6205
 7578SOL    HW224155   5.657   0.222   3.915 -0.2233  0.0035 -0.2588
 7579SOL     OW24156   0.604   7.202   2.874 -0.5285 -0.5892  0.2951
 7579SOL    HW124157   0.563   7.116   2.881 -1.9371  0.0763  0.6809
 7579SOL    HW224158   0.697   7.186   2.891 -0.6016 -2.1535 -0.6137
 7580SOL     OW24159   5.500   4.561   0.638  0.7651  0.6688 -0.2691
 7580SOL    HW124160   5.557   4.635   0.656 -0.9687  2.2775 -1.0261
 7580SOL    HW224161   5.506   4.547   0.543 -0.7142  1.4510 -0.5081
 7581SOL     OW24162   6.947   0.165   1.164  0.0678 -0.0768  0.1065
 7581SOL    HW124163   6.945   0.257   1.190 -1.6489  0.4518 -1.6273
 7581SOL    HW224164   6.854   0.141   1.155  0.4803 -1.0528 -2.3467
 7582SOL     OW24165   3.465   5.221   0.180 -0.2893 -0.0585  0.0164
 7582SOL    HW124166   3.425   5.153   0.126 -0.4032  0.1847 -0.2105
 7582SOL    HW224167   3.557   5.194   0.189 -0.4845 -0.5725  0.4715
 7583SOL     OW24168   5.426   6.676   4.469 -0.3408 -0.0327  0.3966
 7583SOL    HW124169   5.502   6.645   4.421 -0.3842 -0.2146  0.4452
 7583SOL    HW224170   5.463   6.725   4.543 -0.2808  0.9538 -0.2787
 7584SOL     OW24171   6.579   6.285   4.990  0.0746 -0.2772  0.0922
 7584SOL    HW124172   6.671   6.259   4.982  0.3613 -0.6061  3.1561
 7584SOL    HW224173   6.553   6.253   5.077 -1.8142  3.1167  0.9377
 7585SOL     OW24174   0.020   5.064   5.107  0.3499 -0.6409  0.0804
 7585SOL    HW124175   0.034   4.974   5.077  0.5179 -0.5466 -0.1319
 7585SOL    HW224176   0.080   5.075   5.180  1.1014 -0.3675 -0.5676
 7586SOL     OW24177   4.705   1.311   1.858 -0.0597  0.3660  0.1138
 7586SOL    HW124178   4.630   1.252   1.870 -0.4244  1.0129  1.1513
 7586SOL    HW224179   4.673   1.396   1.888  1.3242  0.4841  1.3754
 7587SOL     OW24180   0.638   4.962   0.789  0.5907  0.4382  0.0158
 7587SOL    HW124181   0.594   4.879   0.772  0.1159  0.1467  2.2786
 7587SOL    HW224182   0.641   5.006   0.704 -3.4574  0.1888 -0.4386
 7588SOL     OW24183   1.207   2.545   6.839 -0.0779  0.0864 -0.3515
 7588SOL    HW124184   1.177   2.532   6.749  1.9825 -0.8427 -0.9702
 7588SOL    HW224185   1.205   2.458   6.878  1.4540  0.0210 -0.3484
 7589SOL     OW24186   6.706   2.791   1.685 -0.2053  0.1195 -0.3036
 7589SOL    HW124187   6.761   2.713   1.674 -0.3944  0.0633 -0.8852
 7589SOL    HW224188   6.753   2.844   1.749  0.8166  0.3195 -1.1796
 7590SOL     OW24189   3.744   2.256   6.934  0.5494 -0.1872 -0.1807
 7590SOL    HW124190   3.774   2.314   6.863  0.1050 -0.8992 -0.9673
 7590SOL    HW224191   3.662   2.296   6.964  0.1008 -0.5519 -0.9077
 7591SOL     OW24192   5.550   3.175   0.395 -0.1053  0.2882  0.4176
 7591SOL    HW124193   5.457   3.191   0.411 -0.0453 -1.3405  2.9303
 7591SOL    HW224194   5.553   3.088   0.355  0.3636 -0.2033  1.4806
 7592SOL     OW24195   3.628   3.408   7.843  0.6494 -0.0615 -0.2881
 7592SOL    HW124196   3.669   3.488   7.875 -0.6077  0.5703 -0.2127
 7592SOL    HW224197   3.636   3.414   7.748 -0.3579  0.6772 -0.3399
 7593SOL     OW24198   4.517   7.564   6.173 -0.3174 -0.2192 -0.5385
 7593SOL    HW124199   4.472   7.534   6.095  1.1918 -1.5647 -0.9497
 7593SOL    HW224200   4.597   7.606   6.140 -0.0148 -0.1585  0.2443
 7594SOL     OW24201   5.923   6.190   1.038 -0.4053 -0.2654 -0.0034
 7594SOL    HW124202   6.006   6.160   1.001  0.1062  1.0468  0.0050
 7594SOL    HW224203   5.948   6.263   1.096 -1.7025  1.3243 -1.3486
 7595SOL     OW24204   5.051   6.428   4.891  0.0024 -0.4538  0.2560
 7595SOL    HW124205   5.054   6.522   4.873 -1.9653 -0.4252 -0.1407
 7595SOL    HW224206   5.083   6.387   4.811 -1.1709 -0.1466 -0.3897
 7596SOL     OW24207   2.503   6.748   0.318  0.7161  0.4701 -0.2391
 7596SOL    HW124208   2.525   6.831   0.359  0.6745  1.4590 -2.1218
 7596SOL    HW224209   2.429   6.768   0.260 -0.2270 -1.1972  0.3023
 7597SOL     OW24210   4.239   0.110   5.096  0.2285 -0.1680  0.4797
 7597SOL    HW124211   4.298   0.138   5.166 -0.4495  0.9324  0.6236
 7597SOL    HW224212   4.222   0.189   5.045 -2.5342 -0.0206  1.4671
 7598SOL     OW24213   0.094   1.734   0.705 -0.1472 -0.4287 -0.0751
 7598SOL    HW124214   0.038   1.727   0.628  0.3243 -0.2619 -0.4408
 7598SOL    HW224215   0.035   1.727   0.780 -0.8447  1.1184 -0.4438
 7599SOL     OW24216   1.019   3.080   8.014 -0.1774  0.0780 -0.4194
 7599SOL    HW124217   0.986   3.064   8.102 -0.6298 -0.1426 -0.6286
 7599SOL    HW224218   1.080   3.008   7.998  2.3294  1.7334  0.8891
 7600SOL     OW24219   0.730   1.363   6.803  0.3076 -0.0388  0.1382
 7600SOL    HW124220   0.683   1.308   6.741 -2.5176  0.1453  1.9104
 7600SOL    HW224221   0.769   1.302   6.865  0.0836 -0.1495  0.1714
 7601SOL     OW24222   5.751   1.144   0.420 -0.6883  0.0088  0.0557
 7601SOL    HW124223   5.774   1.084   0.491  1.5091 -0.0943 -0.6698
 7601SOL    HW224224   5.783   1.229   0.450  2.5626 -0.4198 -1.6625
 7602SOL     OW24225   5.409   0.451   2.099  0.2888 -0.2022 -0.1654
 7602SOL    HW124226   5.400   0.379   2.161  0.6113 -0.4002 -0.3455
 7602SOL    HW224227   5.453   0.520   2.149  0.2159 -0.2249 -0.0690
 7603SOL     OW24228   7.973   5.079   3.423  0.1870 -0.1326  0.0979
 7603SOL    HW124229   7.993   5.150   3.484 -0.0809  0.2618 -0.2591
 7603SOL    HW224230   7.895   5.109   3.376 -1.1054 -1.5308  1.2771
 7604SOL     OW24231   1.909   4.942   6.373  0.4813 -0.5001  0.7293
 7604SOL    HW124232   1.895   4.865   6.428 -1.2475 -1.0303 -0.3748
 7604SOL    HW224233   1.991   4.981   6.406  1.2479 -2.6271  1.4913
 7605SOL     OW24234   2.017   1.518   0.834  0.8441  0.1807 -0.2452
 7605SOL    HW124235   1.996   1.426   0.816  1.2119  0.4069 -2.0546
 7605SOL    HW224236   2.018   1.559   0.748 -0.7929  2.2320  0.6413
 7606SOL     OW24237   1.637   5.506   1.080 -0.6477  0.2604 -0.0106
 7606SOL    HW124238   1.686   5.573   1.128  0.9923 -1.8911  1.4886
 7606SOL    HW224239   1.549   5.543   1.072  0.4322  3.0368 -0.2274
 7607SOL     OW24240   1.338   1.126   2.087  0.0925 -0.0455 -0.1036
 7607SOL    HW124241   1.289   1.047   2.067  0.5354 -0.2648 -0.3425
 7607SOL    HW224242   1.299   1.159   2.167 -1.5624  0.7113 -1.1640
 7608SOL     OW24243   1.140   4.891   3.046 -0.4285  0.4440  0.4244
 7608SOL    HW124244   1.154   4.864   2.956  1.5636 -0.2155  0.8813
 7608SOL    HW224245   1.137   4.987   3.042  0.5463  0.4552 -0.2358
 7609SOL     OW24246   3.297   1.503   7.929  0.3082 -0.4586  0.0957
 7609SOL    HW124247   3.362   1.520   7.997  1.6989 -0.6424 -1.1387
 7609SOL    HW224248   3.345   1.454   7.862 -1.0361 -0.3532 -0.9797
 7610SOL     OW24249   5.396   4.369   6.810 -0.1412  0.3179 -0.2994
 7610SOL    HW124250   5.410   4.275   6.796  1.1385  0.4259  0.1253
 7610SOL    HW224251   5.331   4.394   6.744 -1.7343 -1.1692  0.6164
 7611SOL     OW24252   4.369   0.459   5.342  0.0789  0.2461  0.1674
 7611SOL    HW124253   4.390   0.376   5.300  1.4595  1.3665 -1.5030
 7611SOL    HW224254   4.434   0.520   5.308 -2.3745  2.5950 -0.6332
 7612SOL     OW24255   4.435   1.300   7.521  0.3715  0.1231  0.2527
 7612SOL    HW124256   4.372   1.304   7.449  0.5054 -0.4779  0.0961
 7612SOL    HW224257   4.478   1.385   7.520 -1.5916  1.1910  1.4262
 7613SOL     OW24258   6.327   4.278   1.995 -0.4293 -0.5247  0.1032
 7613SOL    HW124259   6.369   4.208   1.946  0.0645 -0.6460  0.6837
 7613SOL    HW224260   6.378   4.285   2.076  1.5758  2.6610 -1.2417
 7614SOL     OW24261   3.254   3.377   2.848  0.0322  0.3532  0.5467
 7614SOL    HW124262   3.335   3.426   2.861  1.0108 -1.3399  1.0967
 7614SOL    HW224263   3.239   3.332   2.932 -0.4437 -0.8182 -0.1411
 7615SOL     OW24264   7.598   3.665   4.733  0.0397 -0.0009 -0.2628
 7615SOL    HW124265   7.616   3.621   4.816  0.3139  1.7555  0.6644
 7615SOL    HW224266   7.549   3.601   4.681 -0.5743 -0.9725  1.4441
 7616SOL     OW24267   2.308   3.471   4.041  0.0702  0.3498 -0.0780
 7616SOL    HW124268   2.354   3.533   4.097 -1.0930  0.5581  0.6736
 7616SOL    HW224269   2.300   3.391   4.093 -0.3030  0.2710 -0.2497
 7617SOL     OW24270   7.525   1.800   5.397  0.5068 -0.0805  0.6090
 7617SOL    HW124271   7.574   1.778   5.476  2.1241 -2.2750 -0.8801
 7617SOL    HW224272   7.477   1.720   5.375 -1.0436  0.9354  0.1090
 7618SOL     OW24273   3.282   6.165   7.684  0.1987  0.2145 -0.1370
 7618SOL    HW124274   3.245   6.217   7.755 -0.4322  0.2515 -0.4816
 7618SOL    HW224275   3.321   6.230   7.625 -0.9087  0.3460 -0.7513
 7619SOL     OW24276   3.092   0.403   5.823  0.1528  0.4401  0.0193
 7619SOL    HW124277   3.168   0.353   5.793 -1.6592 -1.6934 -1.3633
 7619SOL    HW224278   3.090   0.480   5.766  1.4493  0.7111  0.3209
 7620SOL     OW24279   6.204   2.554   6.887  0.7413 -0.2347  0.2639
 7620SOL    HW124280   6.226   2.503   6.809 -0.0620  0.2181 -0.2801
 7620SOL    HW224281   6.283   2.603   6.907  1.6347 -1.8974  0.9863
 7621SOL     OW24282   7.656   5.615   6.934  0.4970 -0.2326 -0.0480
 7621SOL    HW124283   7.688   5.679   6.998  0.7193  0.6480 -1.0083
 7621SOL    HW224284   7.585   5.660   6.889  1.1140 -0.3858 -1.2166
 7622SOL     OW24285   1.918   5.760   6.700 -0.0177 -0.2677  0.4852
 7622SOL    HW124286   1.924   5.667   6.721  0.1333  0.1387  2.4261
 7622SOL    HW224287   1.873   5.799   6.775 -0.7146  1.1305 -0.6044
 7623SOL     OW24288   6.483   2.809   0.663  0.2056  0.0553  0.1385
 7623SOL    HW124289   6.518   2.767   0.585  0.4743 -1.4489  1.0385
 7623SOL    HW224290   6.424   2.877   0.629  1.3110  0.3132 -1.3590
 7624SOL     OW24291   1.587   2.917   6.767 -0.2669  0.1080  0.3852
 7624SOL    HW124292   1.538   2.843   6.803  0.4304 -0.2558  0.6166
 7624SOL    HW224293   1.566   2.991   6.824 -1.2341  0.1820 -0.0471
 7625SOL     OW24294   3.420   7.873   1.694 -0.4408 -0.5253  0.2753
 7625SOL    HW124295   3.507   7.871   1.734 -0.6816 -2.3465  0.7826
 7625SOL    HW224296   3.359   7.880   1.768 -0.7628  1.0430 -0.0885
 7626SOL     OW24297   2.297   4.347   2.968 -0.1806 -0.0240 -0.1518
 7626SOL    HW124298   2.366   4.379   3.026 -1.9378 -1.5936  3.1199
 7626SOL    HW224299   2.260   4.426   2.928  0.0281  1.4184  2.2970
 7627SOL     OW24300   2.855   2.288   7.703 -0.0969 -0.2627  0.2201
 7627SOL    HW124301   2.816   2.277   7.616  2.3926 -0.3599 -0.9731
 7627SOL    HW224302   2.781   2.288   7.763 -1.7741 -2.1833 -1.6979
 7628SOL     OW24303   3.272   6.572   0.343  0.0561 -0.4186 -0.2910
 7628SOL    HW124304   3.366   6.585   0.333  0.0806  0.8716  1.2113
 7628SOL    HW224305   3.261   6.477   0.345  1.2267 -0.5977 -1.1963
 7629SOL     OW24306   3.344   7.095   1.657  0.4384  1.0767 -0.3306
 7629SOL    HW124307   3.302   7.028   1.603  3.0975  0.7226 -2.1803
 7629SOL    HW224308   3.364   7.050   1.739 -0.1218  0.3833 -0.5594
 7630SOL     OW24309   7.102   4.617   1.029  0.2699  0.0914 -0.1189
 7630SOL    HW124310   7.090   4.522   1.019  0.4682  0.0858 -0.3000
 7630SOL    HW224311   7.105   4.651   0.940 -0.1946  0.3220 -0.0541
 7631SOL     OW24312   7.085   6.225   2.636 -0.9501 -0.2620 -0.3569
 7631SOL    HW124313   7.014   6.266   2.586 -0.0988  1.0580 -0.5235
 7631SOL    HW224314   7.134   6.298   2.673  0.0537 -1.1621  0.1519
 7632SOL     OW24315   0.280   0.116   3.836 -0.4320  0.5269 -0.1305
 7632SOL    HW124316   0.311   0.187   3.779 -1.1373  0.7597 -0.2340
 7632SOL    HW224317   0.358   0.063   3.854 -0.0969  0.7643 -0.8693
 7633SOL     OW24318   6.794   1.645   7.809  0.1953  0.0645  0.2450
 7633SOL    HW124319   6.838   1.563   7.786 -4.0017 -2.3367 -0.3913
 7633SOL    HW224320   6.820   1.661   7.900  0.7291 -2.3996  0.6060
 7634SOL     OW24321   8.046   6.018   4.673 -0.1554 -0.0284  0.5924
 7634SOL    HW124322   7.953   6.008   4.651  0.0574 -0.2011 -0.2350
 7634SOL    HW224323   8.090   6.028   4.589  0.5061  0.6714  1.0104
 7635SOL     OW24324   2.500   0.012   2.374  0.0729  0.0628  0.7645
 7635SOL    HW124325   2.430   0.073   2.352  1.2273  1.0985 -0.2175
 7635SOL    HW224326   2.523   0.034   2.465 -0.0551  0.5555  0.6834
 7636SOL     OW24327   7.612   5.748   3.940  0.0666  0.3626 -0.3453
 7636SOL    HW124328   7.641   5.792   4.020  1.1842 -1.1157  0.1058
 7636SOL    HW224329   7.681   5.684   3.921 -1.6078 -1.4016 -0.8013
 7637SOL     OW24330   5.482   7.810   5.561 -0.2480 -0.4939  0.0652
 7637SOL    HW124331   5.494   7.786   5.653 -1.1656 -1.5696 -0.0717
 7637SOL    HW224332   5.562   7.781   5.518 -0.4991 -1.5319  0.2602
 7638SOL     OW24333   4.894   1.758   3.193  0.3727 -0.3481 -0.1298
 7638SOL    HW124334   4.845   1.824   3.144  1.4596  0.2782 -0.4226
 7638SOL    HW224335   4.863   1.675   3.159 -0.8115  0.0141  0.0274
 7639SOL     OW24336   0.547   1.789   2.794  0.0720 -0.4503  0.0165
 7639SOL    HW124337   0.598   1.835   2.860 -0.6312 -0.0097  0.2702
 7639SOL    HW224338   0.478   1.851   2.770 -1.4056 -1.6412  0.9687
 7640SOL     OW24339   5.541   1.768   2.270 -0.4181  0.3989  0.6231
 7640SOL    HW124340   5.514   1.757   2.361  2.1446 -2.6421  1.1791
 7640SOL    HW224341   5.637   1.761   2.272  0.0535  3.4732 -2.0032
 7641SOL     OW24342   5.178   1.008   2.875  0.1096 -0.3874  0.1659
 7641SOL    HW124343   5.197   1.075   2.809 -2.7350  1.0042  0.6254
 7641SOL    HW224344   5.204   0.926   2.833  0.6013  0.6656 -1.7470
 7642SOL     OW24345   7.627   6.238   2.874  0.5267  0.0795  0.0320
 7642SOL    HW124346   7.636   6.316   2.820  0.8735 -0.5839 -0.8873
 7642SOL    HW224347   7.717   6.215   2.897  0.5624 -1.0432 -1.1609
 7643SOL     OW24348   6.702   1.648   0.852 -0.5134 -0.0541 -0.2466
 7643SOL    HW124349   6.709   1.744   0.856  2.1820 -0.0488 -1.9288
 7643SOL    HW224350   6.651   1.631   0.772 -0.1749  0.0098 -0.4809
 7644SOL     OW24351   0.358   1.188   2.953  0.2512 -0.2850 -0.2526
 7644SOL    HW124352   0.328   1.097   2.959  0.8744 -0.5385 -0.8417
 7644SOL    HW224353   0.446   1.186   2.991  0.5384 -0.0720 -0.8918
 7645SOL     OW24354   1.090   2.611   3.011 -0.3492 -0.1802  0.0871
 7645SOL    HW124355   1.020   2.609   2.946 -1.0733  1.3873  0.7813
 7645SOL    HW224356   1.165   2.573   2.965 -1.3156 -0.7832 -1.0643
 7646SOL     OW24357   1.113   2.255   2.951  0.2230 -0.5304  0.3097
 7646SOL    HW124358   1.061   2.314   2.896  0.6756 -1.4759 -1.1655
 7646SOL    HW224359   1.061   2.246   3.031 -0.7128  0.4433 -0.1544
 7647SOL     OW24360   2.894   2.410   6.977 -0.4610 -0.3417 -0.2191
 7647SOL    HW124361   2.928   2.471   7.042  1.0546 -2.0263  0.6553
 7647SOL    HW224362   2.906   2.456   6.893  0.0720  0.7826  0.4479
 7648SOL     OW24363   2.962   1.499   4.817  0.0062 -0.2643  0.2382
 7648SOL    HW124364   3.011   1.454   4.885  3.6406  1.1242 -1.2193
 7648SOL    HW224365   2.981   1.450   4.737  1.1577  1.7424 -0.7873
 7649SOL     OW24366   6.093   1.174   7.021 -0.4853  0.5998  0.2375
 7649SOL    HW124367   6.165   1.116   7.044  0.0246  1.8598  2.0769
 7649SOL    HW224368   6.133   1.260   7.012 -1.1687  0.7214 -2.7306
 7650SOL     OW24369   1.159   5.719   7.591 -0.2848  0.0577 -0.0457
 7650SOL    HW124370   1.126   5.740   7.503  0.8883  1.9491 -0.1107
 7650SOL    HW224371   1.114   5.781   7.649  1.9655  1.7706  0.0335
 7651SOL     OW24372   5.519   5.183   5.339 -0.2320  0.3169 -0.1745
 7651SOL    HW124373   5.544   5.127   5.266 -2.4117  0.8114 -1.3696
 7651SOL    HW224374   5.555   5.269   5.317  1.2194 -0.0485  0.5965
 7652SOL     OW24375   7.427   1.414   4.199 -0.1084  0.2551 -0.2011
 7652SOL    HW124376   7.429   1.340   4.260  0.9031 -0.6983 -1.3218
 7652SOL    HW224377   7.464   1.379   4.118  2.4618  2.4940 -0.1698
 7653SOL     OW24378   5.159   6.637   4.603  0.3558 -0.2618 -0.0380
 7653SOL    HW124379   5.151   6.681   4.688 -1.8152 -1.0506  0.2287
 7653SOL    HW224380   5.247   6.660   4.572  0.3335  1.9681  1.3404
 7654SOL     OW24381   3.775   6.643   2.795  0.7228  0.2140  0.3797
 7654SOL    HW124382   3.779   6.551   2.820  0.2272 -0.3219 -1.4202
 7654SOL    HW224383   3.791   6.643   2.701  0.5799  1.9647  0.3297
 7655SOL     OW24384   7.132   3.875   7.994  0.2630  0.0837 -0.2760
 7655SOL    HW124385   7.108   3.912   7.909 -3.0854  1.6951  1.1875
 7655SOL    HW224386   7.065   3.809   8.011  3.0481 -3.0618 -0.3992
 7656SOL     OW24387   7.869   2.003   0.642  0.0675  0.5914  0.1266
 7656SOL    HW124388   7.788   1.975   0.684  0.1990 -0.0857 -0.0618
 7656SOL    HW224389   7.929   2.020   0.714 -0.3327  1.4057  0.2807
 7657SOL     OW24390   3.750   5.775   2.714 -0.1664 -0.0938  0.6083
 7657SOL    HW124391   3.713   5.726   2.641 -1.7237  2.2797 -0.3247
 7657SOL    HW224392   3.681   5.773   2.781 -0.7902  1.7391  0.0796
 7658SOL     OW24393   2.025   2.080   7.844 -0.4911 -0.9124 -0.8251
 7658SOL    HW124394   1.963   2.015   7.810 -2.7124  0.3845  0.5054
 7658SOL    HW224395   2.049   2.132   7.768  0.0628 -2.2498 -1.6076
 7659SOL     OW24396   1.057   8.050   6.063  0.3673 -0.4967 -0.3955
 7659SOL    HW124397   0.982   8.072   6.008  0.7354 -1.5077 -1.3330
 7659SOL    HW224398   1.118   8.122   6.050 -0.9141  1.0164  1.3876
 7660SOL     OW24399   2.610   1.684   2.741  0.5007 -0.3322  0.1657
 7660SOL    HW124400   2.587   1.608   2.688 -0.5558  0.6750 -0.8951
 7660SOL    HW224401   2.564   1.671   2.824 -0.7179 -0.2601 -0.4799
 7661SOL     OW24402   3.898   5.774   7.508 -0.0303  0.0501  0.2874
 7661SOL    HW124403   3.981   5.778   7.555  0.8705  0.2224 -1.2368
 7661SOL    HW224404   3.833   5.753   7.575  1.1321  0.5870  1.6401
 7662SOL     OW24405   1.302   3.271   2.914 -0.2728  0.1894 -0.2847
 7662SOL    HW124406   1.257   3.200   2.869 -0.2285  0.2093 -0.3593
 7662SOL    HW224407   1.277   3.350   2.867  0.7003  0.0903 -1.0028
 7663SOL     OW24408   7.721   2.786   1.771  0.8650 -0.0216 -0.2615
 7663SOL    HW124409   7.652   2.852   1.779  0.3431 -0.5343 -0.4386
 7663SOL    HW224410   7.706   2.746   1.685  0.7525 -0.8223  0.1160
 7664SOL     OW24411   2.320   2.580   7.090  0.2449  0.0344 -0.1694
 7664SOL    HW124412   2.306   2.648   7.023  0.0839 -0.8177 -1.0224
 7664SOL    HW224413   2.285   2.500   7.051  0.6758 -0.6058  0.7130
 7665SOL     OW24414   2.522   4.864   0.369  0.3802 -0.1396  0.2617
 7665SOL    HW124415   2.582   4.833   0.302  0.3679  1.1877 -0.3809
 7665SOL    HW224416   2.579   4.893   0.441  0.4545  0.1188  0.0961
 7666SOL     OW24417   5.863   0.816   7.915 -0.0243  0.1539 -0.2871
 7666SOL    HW124418   5.810   0.893   7.933 -0.9440  0.1107 -2.4902
 7666SOL    HW224419   5.836   0.752   7.982 -2.8177  0.1244 -1.3046
 7667SOL     OW24420   0.027   4.764   3.851 -0.0059 -0.5536 -0.2024
 7667SOL    HW124421   0.105   4.812   3.879  0.2149  0.2204 -2.0155
 7667SOL    HW224422  -0.037   4.778   3.921  0.9077  0.2219  0.5015
 7668SOL     OW24423   4.801   0.191   2.064 -0.5143  0.4016  0.3369
 7668SOL    HW124424   4.769   0.104   2.042  0.9195 -0.2611  0.7004
 7668SOL    HW224425   4.839   0.181   2.152  0.3616  1.1919  0.0727
 7669SOL     OW24426   3.259   1.585   1.115  0.1078 -0.6515  0.3963
 7669SOL    HW124427   3.237   1.524   1.044  0.3954 -1.0947  0.6780
 7669SOL    HW224428   3.240   1.672   1.080 -0.3222 -0.9079 -0.0091
 7670SOL     OW24429   0.752   4.368   7.889 -0.2640  0.0406 -0.7074
 7670SOL    HW124430   0.749   4.353   7.984 -1.5468  0.2141 -0.7007
 7670SOL    HW224431   0.824   4.314   7.858  0.5436  0.4103  0.4404
 7671SOL     OW24432   2.601   7.508   4.323 -0.0324  0.0861 -0.0875
 7671SOL    HW124433   2.525   7.453   4.343  0.0345 -0.3387 -0.9575
 7671SOL    HW224434   2.667   7.482   4.388 -0.7104  0.6632  0.8591
 7672SOL     OW24435   5.969   6.392   7.764  0.2599  0.3064 -0.3451
 7672SOL    HW124436   6.015   6.431   7.838  0.3523  0.5855 -0.5454
 7672SOL    HW224437   6.031   6.331   7.725  0.3742  0.4959 -0.4627
 7673SOL     OW24438   6.466   7.196   3.687 -0.3752 -0.1105  0.1725
 7673SOL    HW124439   6.471   7.107   3.652  0.9584 -0.1249  0.3711
 7673SOL    HW224440   6.521   7.248   3.628  0.3324  0.2270  1.1150
 7674SOL     OW24441   3.045   6.453   0.850  0.3318  0.2147  0.6013
 7674SOL    HW124442   2.954   6.467   0.877  0.3826  1.8588  0.0657
 7674SOL    HW224443   3.050   6.494   0.764  1.7747  0.8923  0.9867
 7675SOL     OW24444   6.049   1.448   1.857 -0.1029  0.1137  0.2644
 7675SOL    HW124445   6.009   1.361   1.849  0.3505 -0.1117  0.3670
 7675SOL    HW224446   6.083   1.450   1.947  0.2541  0.2307  0.1296
 7676SOL     OW24447   3.713   0.363   5.977  0.6008 -0.6468 -0.6149
 7676SOL    HW124448   3.725   0.436   6.037  0.7606 -0.1988 -1.1763
 7676SOL    HW224449   3.779   0.299   6.004 -1.2300 -1.7615  1.5498
 7677SOL     OW24450   0.154   6.024   7.438  0.1929 -0.1563 -0.4256
 7677SOL    HW124451   0.179   6.044   7.348  1.1744 -2.5013 -0.7336
 7677SOL    HW224452   0.085   5.958   7.431 -1.0308  0.9332  0.5683
 7678SOL     OW24453   3.974   5.914   1.849 -0.2000  0.5236 -0.0393
 7678SOL    HW124454   4.053   5.882   1.893  0.1617  0.5918 -0.6353
 7678SOL    HW224455   3.903   5.888   1.907  0.0042 -1.9694 -0.8017
 7679SOL     OW24456   4.224   3.053   8.060  0.2616 -0.4374  0.2467
 7679SOL    HW124457   4.208   3.126   8.000  1.8052  0.8424  1.3022
 7679SOL    HW224458   4.140   3.037   8.103  0.1593  1.5914  0.8865
 7680SOL     OW24459   6.018   3.864   3.413  0.1254  0.0947  0.6126
 7680SOL    HW124460   5.980   3.816   3.486 -1.9262 -2.0061 -1.6388
 7680SOL    HW224461   5.992   3.955   3.428  1.0837  0.0133  3.1966
 7681SOL     OW24462   5.879   5.389   3.885  0.7999  0.4338  0.1880
 7681SOL    HW124463   5.880   5.294   3.895  4.1312  0.2153 -0.6970
 7681SOL    HW224464   5.972   5.414   3.885  0.0711  3.6617  0.0140
 7682SOL     OW24465   4.881   7.560   6.355  0.2260  0.1263  0.4394
 7682SOL    HW124466   4.840   7.497   6.295  0.5561 -0.6907  1.0598
 7682SOL    HW224467   4.923   7.507   6.421  0.0505  1.0176  1.2973
 7683SOL     OW24468   6.833   7.073   3.254 -0.3202  0.0373  0.1769
 7683SOL    HW124469   6.845   7.071   3.349  1.3262  0.1847  0.0003
 7683SOL    HW224470   6.807   6.984   3.231 -0.5799 -0.0375  0.7538
 7684SOL     OW24471   7.221   1.617   1.842  0.0980  0.4366  0.5567
 7684SOL    HW124472   7.157   1.562   1.888 -1.5887  0.3369 -1.7623
 7684SOL    HW224473   7.305   1.575   1.861 -0.8575 -1.4232  0.9713
 7685SOL     OW24474   3.755   1.420   5.693  0.9082 -0.0609 -0.1376
 7685SOL    HW124475   3.820   1.429   5.623  2.0616 -0.2648  0.8763
 7685SOL    HW224476   3.778   1.338   5.736  0.0469 -0.0640  0.3228
 7686SOL     OW24477   5.278   6.096   7.256 -0.4425 -0.2507  0.3427
 7686SOL    HW124478   5.260   6.182   7.294 -1.4188  0.3512 -1.4122
 7686SOL    HW224479   5.262   6.035   7.329  1.1895  1.0625  1.8886
 7687SOL     OW24480   0.718   5.265   4.557  0.2564  0.1874 -0.4125
 7687SOL    HW124481   0.661   5.318   4.612  1.2018 -1.7439  2.6461
 7687SOL    HW224482   0.799   5.316   4.550  0.2675  0.2912  0.3814
 7688SOL     OW24483   4.108   4.962   2.616 -0.1661 -0.3991 -0.3096
 7688SOL    HW124484   4.056   4.885   2.597 -0.3695 -0.1356 -0.8456
 7688SOL    HW224485   4.048   5.023   2.659  0.2616 -0.9446  1.1256
 7689SOL     OW24486   4.723   2.412   4.882  0.4098  0.1229 -0.2558
 7689SOL    HW124487   4.784   2.428   4.810 -0.3893  1.8854 -0.5810
 7689SOL    HW224488   4.708   2.498   4.921 -2.1827 -0.1868 -0.4449
 7690SOL     OW24489   7.293   0.954   6.073  0.5866  0.2295  0.7790
 7690SOL    HW124490   7.261   0.975   5.985 -0.1755 -1.7763  0.5357
 7690SOL    HW224491   7.386   0.934   6.061  0.7211  0.9110  0.6179
 7691SOL     OW24492   2.911   0.571   0.139  0.6909 -0.1276 -0.8647
 7691SOL    HW124493   2.914   0.574   0.235  2.2635 -0.4480 -0.8803
 7691SOL    HW224494   2.827   0.612   0.117  0.2568 -0.1281  0.6425
 7692SOL     OW24495   4.997   4.545   1.678  0.0177 -0.3643 -0.1541
 7692SOL    HW124496   5.085   4.580   1.687  0.0269 -0.3560 -0.2743
 7692SOL    HW224497   4.948   4.585   1.749  0.6439 -2.1053  1.3152
 7693SOL     OW24498   3.789   6.369   2.868  0.5946 -0.0809 -0.2262
 7693SOL    HW124499   3.823   6.310   2.801  1.6161  1.2356 -0.9071
 7693SOL    HW224500   3.865   6.390   2.923 -0.3004 -1.5087  1.7159
 7694SOL     OW24501   1.126   0.957   2.071  0.0297 -0.2464 -0.2660
 7694SOL    HW124502   1.046   0.965   2.123  1.4283  0.7138  1.8373
 7694SOL    HW224503   1.140   0.863   2.062 -1.4551 -0.4336 -0.9354
 7695SOL     OW24504   3.556   7.868   4.812  0.4925 -0.4467 -0.7291
 7695SOL    HW124505   3.503   7.789   4.817  0.9509 -0.7597 -0.7167
 7695SOL    HW224506   3.522   7.925   4.880 -0.8312 -0.0172 -1.7093
 7696SOL     OW24507   6.751   5.049   7.552 -0.5289  0.1927 -0.1668
 7696SOL    HW124508   6.734   4.959   7.579  0.4323  0.3886  1.1928
 7696SOL    HW224509   6.744   5.101   7.632 -2.6132  1.6045 -1.1863
 7697SOL     OW24510   3.853   4.106   5.277  0.8887 -0.1151  0.5123
 7697SOL    HW124511   3.782   4.041   5.277  0.1239  0.5882 -2.2908
 7697SOL    HW224512   3.816   4.182   5.232  3.3938  0.3081 -0.9930
 7698SOL     OW24513   0.500   3.049   3.701 -0.3108  0.1825 -0.0282
 7698SOL    HW124514   0.446   2.981   3.741  0.2978 -0.7351 -0.7432
 7698SOL    HW224515   0.516   3.112   3.772  0.6342 -1.3373  1.1640
 7699SOL     OW24516   3.608   6.579   3.925 -0.3188  0.0555  0.1287
 7699SOL    HW124517   3.672   6.548   3.989 -1.0763  0.6859  1.2235
 7699SOL    HW224518   3.612   6.515   3.854  1.7794  0.2836 -0.0121
 7700SOL     OW24519   5.319   0.117   8.038  0.1056 -0.7124 -0.3227
 7700SOL    HW124520   5.406   0.127   8.076 -0.3543 -0.6421  0.7350
 7700SOL    HW224521   5.286   0.206   8.031 -0.3949 -0.8221  0.5239
 7701SOL     OW24522   6.218   7.639   0.603 -0.2955  0.0132 -0.2221
 7701SOL    HW124523   6.310   7.646   0.577  0.1267  0.4364  1.2833
 7701SOL    HW224524   6.217   7.567   0.667 -0.9877  0.1004 -0.1266
 7702SOL     OW24525   3.651   0.943   2.520  0.3307 -0.1596  0.3640
 7702SOL    HW124526   3.712   0.958   2.592  0.5449 -0.3478  0.2226
 7702SOL    HW224527   3.636   1.030   2.483 -0.2355  0.0278  0.9989
 7703SOL     OW24528   6.138   5.200   2.648  0.1745 -0.3849 -0.2016
 7703SOL    HW124529   6.067   5.254   2.611 -1.3721 -1.5156  0.9615
 7703SOL    HW224530   6.135   5.218   2.742  2.4116  0.6000 -0.2742
 7704SOL     OW24531   5.128   6.625   6.722 -0.6230 -0.4117  0.2360
 7704SOL    HW124532   5.098   6.700   6.670 -0.7018 -1.0666 -0.7040
 7704SOL    HW224533   5.177   6.571   6.659  0.1539 -0.7276  1.0926
 7705SOL     OW24534   6.655   3.206   5.468  0.4566  0.5269  0.0424
 7705SOL    HW124535   6.595   3.157   5.524  0.5982  0.6118  0.2698
 7705SOL    HW224536   6.728   3.146   5.451 -0.7880 -0.4451 -2.1907
 7706SOL     OW24537   2.373   4.000   4.621 -0.0467 -0.0455  0.1866
 7706SOL    HW124538   2.289   3.983   4.665  0.1292 -0.1649  0.4811
 7706SOL    HW224539   2.429   4.034   4.690 -0.0994  0.8295 -0.1942
 7707SOL     OW24540   3.674   0.653   4.639  0.8011 -0.0515 -0.0997
 7707SOL    HW124541   3.628   0.731   4.668  2.4371  0.9647 -0.0919
 7707SOL    HW224542   3.605   0.593   4.610 -0.4727  1.5020 -0.3807
 7708SOL     OW24543   0.348   2.833   3.507  0.2421 -0.3206  0.3342
 7708SOL    HW124544   0.359   2.924   3.534 -2.7672  1.1963 -2.8280
 7708SOL    HW224545   0.268   2.805   3.550  0.7219 -1.2397  0.6479
 7709SOL     OW24546   1.502   3.478   0.741 -0.4183 -0.0390 -0.0306
 7709SOL    HW124547   1.493   3.463   0.835 -0.3068 -1.4904 -0.2424
 7709SOL    HW224548   1.536   3.568   0.735 -0.6892  0.1767  1.2932
 7710SOL     OW24549   6.295   4.028   6.489  0.2780  0.0619  0.0296
 7710SOL    HW124550   6.380   4.044   6.446  1.2454  0.0504  1.8445
 7710SOL    HW224551   6.268   4.114   6.521 -1.7920  0.6150 -2.7939
 7711SOL     OW24552   4.760   0.301   7.670 -0.3502  0.4557  0.0990
 7711SOL    HW124553   4.787   0.210   7.675  1.3232  0.9725  1.2762
 7711SOL    HW224554   4.754   0.330   7.761 -1.6631  1.3195 -0.2295
 7712SOL     OW24555   2.209   0.591   7.027  0.1602 -0.2860 -0.5049
 7712SOL    HW124556   2.128   0.565   7.070  0.6065  1.0716  1.2511
 7712SOL    HW224557   2.254   0.508   7.007 -1.2993 -1.0225 -0.8528
 7713SOL     OW24558   1.575   2.445   6.615  0.3183  0.3067  0.2123
 7713SOL    HW124559   1.657   2.425   6.659  0.4476 -0.0831 -0.1926
 7713SOL    HW224560   1.599   2.505   6.545  0.3864 -0.3880 -0.3763
 7714SOL     OW24561   2.693   1.495   4.566 -0.3716 -0.3924  0.1018
 7714SOL    HW124562   2.725   1.582   4.589 -0.3429 -0.4937  0.4632
 7714SOL    HW224563   2.652   1.463   4.647  1.3202 -1.4873  0.5964
 7715SOL     OW24564   6.216   4.527   5.291  1.0173  0.3437 -0.2675
 7715SOL    HW124565   6.191   4.466   5.361 -0.4441  0.5867 -0.5529
 7715SOL    HW224566   6.150   4.513   5.223  1.1194  1.6902 -0.6598
 7716SOL     OW24567   1.576   5.957   3.918  0.0945  0.8216  0.0808
 7716SOL    HW124568   1.636   5.978   3.989  0.7086  0.8381 -0.4278
 7716SOL    HW224569   1.606   5.872   3.885 -0.4218  0.6314  0.0890
 7717SOL     OW24570   2.626   7.903   0.658  0.4677  0.1374 -0.5249
 7717SOL    HW124571   2.702   7.868   0.703  0.5075 -1.5957 -1.8591
 7717SOL    HW224572   2.598   7.834   0.598 -1.2514  1.2938 -1.1663
 7718SOL     OW24573   2.996   1.199   0.031 -0.0999 -0.1743  0.0127
 7718SOL    HW124574   2.986   1.285   0.072  0.0963  0.5673 -1.4265
 7718SOL    HW224575   3.065   1.156   0.081 -0.9869  0.0470  1.4617
 7719SOL     OW24576   7.011   7.557   1.968  0.0140  0.5635 -0.2668
 7719SOL    HW124577   6.931   7.567   1.916 -0.9204  0.7612  1.1734
 7719SOL    HW224578   7.022   7.462   1.976 -0.2406  0.5367 -0.2251
 7720SOL     OW24579   0.425   7.682   5.135 -0.3984 -0.0255 -0.4245
 7720SOL    HW124580   0.460   7.651   5.051 -0.4708  1.7336 -1.1410
 7720SOL    HW224581   0.335   7.707   5.115 -1.9194 -3.5602  1.1805
 7721SOL     OW24582   2.762   0.325   8.040 -0.4391  0.5135  0.5081
 7721SOL    HW124583   2.803   0.404   8.005  1.3422 -0.5025  0.2337
 7721SOL    HW224584   2.769   0.335   8.135  0.2715  0.4438  0.4658
 7722SOL     OW24585   0.653   5.916   7.108  0.0598  0.6648  0.0609
 7722SOL    HW124586   0.633   5.924   7.201 -0.1123  4.2272 -0.1655
 7722SOL    HW224587   0.746   5.895   7.106 -0.0666 -0.0950  0.9958
 7723SOL     OW24588   5.364   2.972   5.469 -0.4662  0.4964 -0.6074
 7723SOL    HW124589   5.335   2.887   5.435  2.3506 -0.2210 -1.4983
 7723SOL    HW224590   5.292   3.002   5.524 -1.7320 -2.2835 -0.5905
 7724SOL     OW24591   4.965   1.957   6.655 -0.0215  0.2322 -0.3644
 7724SOL    HW124592   4.969   2.032   6.595 -0.0155  0.9591  0.5218
 7724SOL    HW224593   4.881   1.915   6.634  0.6549 -0.4425 -1.9134
 7725SOL     OW24594   0.940   6.912   2.017  0.1118  0.0689  0.0053
 7725SOL    HW124595   0.959   6.855   1.942 -0.5425  1.1804 -1.0533
 7725SOL    HW224596   1.024   6.925   2.060  0.1119 -2.5676  0.9749
 7726SOL     OW24597   0.213   4.987   3.649 -0.2657 -0.5569 -0.6503
 7726SOL    HW124598   0.225   4.936   3.729 -2.0325 -0.2686 -0.1654
 7726SOL    HW224599   0.161   4.931   3.592 -0.9799  0.1124 -0.6793
 7727SOL     OW24600   6.318   3.038   0.561  0.3991  0.2165 -0.4390
 7727SOL    HW124601   6.333   3.035   0.467  0.5697  1.1722 -0.4470
 7727SOL    HW224602   6.227   3.064   0.570 -0.8259 -3.5192 -0.3587
 7728SOL     OW24603   5.764   0.234   3.430 -0.3486 -0.2680  0.4814
 7728SOL    HW124604   5.854   0.246   3.403  0.0944  0.6110  2.2081
 7728SOL    HW224605   5.743   0.312   3.481 -1.5328 -1.1907  1.4957
 7729SOL     OW24606   4.065   1.472   3.725  0.1434  0.1209 -0.0102
 7729SOL    HW124607   4.115   1.530   3.668 -0.4880  3.0081  2.2063
 7729SOL    HW224608   4.130   1.435   3.785  0.1834  0.7013  0.3086
 7730SOL     OW24609   7.102   4.835   5.481 -0.6019 -0.0756  0.1882
 7730SOL    HW124610   7.021   4.804   5.521 -0.3021  0.9824  1.7115
 7730SOL    HW224611   7.140   4.893   5.546  0.7683  0.4315 -1.0055
 7731SOL     OW24612   1.751   4.176   6.155 -0.8503  0.7901  0.3754
 7731SOL    HW124613   1.735   4.225   6.236  0.3601  0.3540  0.8967
 7731SOL    HW224614   1.828   4.123   6.174 -0.2592  1.0317 -1.2244
 7732SOL     OW24615   0.452   6.582   7.183 -0.0090 -0.1564  0.1461
 7732SOL    HW124616   0.406   6.591   7.100 -1.1170  0.0747  0.7628
 7732SOL    HW224617   0.414   6.504   7.224  0.1067  0.0613  0.6846
 7733SOL     OW24618   3.189   1.993   2.863 -0.2719 -0.2962  0.0573
 7733SOL    HW124619   3.231   1.939   2.930 -0.8898  0.3467  0.9833
 7733SOL    HW224620   3.259   2.048   2.830  0.2956 -1.4082 -0.6664
 7734SOL     OW24621   6.806   6.623   7.541 -0.5066  0.3473  0.9938
 7734SOL    HW124622   6.767   6.710   7.547 -1.1457  0.1088  0.4147
 7734SOL    HW224623   6.889   6.630   7.589  0.1263  1.6582 -0.2199
 7735SOL     OW24624   1.931   2.930   2.173 -0.0119  0.5694 -0.3397
 7735SOL    HW124625   1.923   3.007   2.117  0.3455  1.4955  0.8309
 7735SOL    HW224626   1.877   2.950   2.249 -2.1348 -1.5069 -1.1658
 7736SOL     OW24627   5.953   0.080   0.860 -0.0006 -0.4074 -0.2015
 7736SOL    HW124628   5.861   0.089   0.884  0.5548 -0.1779  2.0170
 7736SOL    HW224629   5.971   0.158   0.806 -1.0114 -0.2824 -0.3748
 7737SOL     OW24630   3.931   4.674   1.406 -0.2392  0.2949  0.0646
 7737SOL    HW124631   4.011   4.691   1.456  1.2179 -2.1243 -1.2670
 7737SOL    HW224632   3.891   4.599   1.450  0.9620 -1.7414 -2.0832
 7738SOL     OW24633   6.373   4.300   1.595  0.0815 -0.2026 -0.7290
 7738SOL    HW124634   6.380   4.214   1.634  1.0455  1.2005  2.4758
 7738SOL    HW224635   6.282   4.327   1.612  0.1185 -0.1076 -0.6801
 7739SOL     OW24636   1.427   6.145   2.022 -0.4259  0.7508  0.0287
 7739SOL    HW124637   1.394   6.195   2.096 -1.7337  0.3285 -0.2357
 7739SOL    HW224638   1.375   6.065   2.022 -0.0972  0.5120 -1.0403
 7740SOL     OW24639   2.736   7.314   4.837 -0.1328  0.5382  0.4047
 7740SOL    HW124640   2.645   7.284   4.834 -0.3048  1.1017 -1.4885
 7740SOL    HW224641   2.742   7.365   4.918 -1.3019 -0.1109  0.9131
 7741SOL     OW24642   4.597   6.719   4.809 -0.0440 -0.0382  0.0439
 7741SOL    HW124643   4.663   6.703   4.742  0.3611 -0.0414  0.4340
 7741SOL    HW224644   4.514   6.695   4.768  0.3187 -1.1687 -0.0786
 7742SOL     OW24645   4.242   1.824   6.314  0.5466  0.1820  0.0299
 7742SOL    HW124646   4.163   1.863   6.353 -1.2695 -2.7188 -0.4617
 7742SOL    HW224647   4.271   1.761   6.379  0.7040 -0.8649 -1.0338
 7743SOL     OW24648   0.794   1.840   2.973  0.1479  0.0964  1.1028
 7743SOL    HW124649   0.841   1.865   2.893 -1.4685  0.3580  0.1831
 7743SOL    HW224650   0.789   1.745   2.969  1.3893 -0.0137  1.7023
 7744SOL     OW24651   8.010   6.986   2.519  0.0708  0.0920  0.5464
 7744SOL    HW124652   7.960   6.949   2.592  2.4260 -1.7902  1.3390
 7744SOL    HW224653   7.947   6.990   2.447 -1.2162 -2.3802  1.4089
 7745SOL     OW24654   6.187   0.448   4.882  0.3539  0.4401  0.1622
 7745SOL    HW124655   6.210   0.361   4.850 -1.0360  0.8551 -2.2081
 7745SOL    HW224656   6.101   0.465   4.845  0.8110  3.0392  0.1025
 7746SOL     OW24657   6.865   1.977   5.015  0.0154  0.0047  0.2870
 7746SOL    HW124658   6.947   1.947   4.976 -0.7982 -1.0731 -0.6592
 7746SOL    HW224659   6.798   1.922   4.976 -1.0901  0.3050  1.6696
 7747SOL     OW24660   2.239   1.870   5.472  0.5895 -0.0963 -0.2738
 7747SOL    HW124661   2.285   1.914   5.400  0.5800  0.5096  0.0850
 7747SOL    HW224662   2.241   1.777   5.448 -0.4456  0.2005 -1.6504
 7748SOL     OW24663   3.161   7.655   2.958  0.8403  0.1854 -0.0341
 7748SOL    HW124664   3.098   7.722   2.983 -0.2219 -0.6522 -0.4075
 7748SOL    HW224665   3.231   7.662   3.023 -0.0135  0.5937  0.8506
 7749SOL     OW24666   3.243   2.442   7.888 -0.2445 -0.9894  0.2908
 7749SOL    HW124667   3.229   2.400   7.803 -1.0014 -3.7942  1.6727
 7749SOL    HW224668   3.332   2.478   7.883 -0.6541 -0.1649 -1.9953
 7750SOL     OW24669   3.691   1.685   2.236  0.4211 -0.0874  0.3708
 7750SOL    HW124670   3.596   1.688   2.227  0.4688  3.6411 -0.6864
 7750SOL    HW224671   3.706   1.698   2.330 -0.0613 -0.8913  0.5752
 7751SOL     OW24672   0.717   1.513   4.753 -0.0706  0.1793  0.6974
 7751SOL    HW124673   0.751   1.508   4.663 -1.4750  0.2781  0.1272
 7751SOL    HW224674   0.622   1.502   4.743 -0.2056 -0.2645  2.2252
 7752SOL     OW24675   2.379   3.353   0.373 -0.6279 -0.5197 -0.6761
 7752SOL    HW124676   2.338   3.287   0.429 -0.6187 -0.1218 -0.1974
 7752SOL    HW224677   2.450   3.389   0.426 -0.4555 -0.3238 -1.0399
 7753SOL     OW24678   4.594   6.315   6.158  0.0632 -0.2736  0.0356
 7753SOL    HW124679   4.542   6.393   6.140  0.6044  0.3167  0.9223
 7753SOL    HW224680   4.555   6.278   6.236  0.0910 -0.6357 -0.1219
 7754SOL     OW24681   2.830   0.136   2.536 -0.4494 -0.1267 -0.5671
 7754SOL    HW124682   2.835   0.210   2.475 -1.2898  0.7958  0.4485
 7754SOL    HW224683   2.789   0.066   2.485 -2.0533  0.9342 -0.7994
 7755SOL     OW24684   5.695   6.757   2.864  0.1466 -0.5917 -0.3007
 7755SOL    HW124685   5.606   6.767   2.896 -0.2837 -1.3000 -1.2573
 7755SOL    HW224686   5.749   6.801   2.930 -0.8781 -0.3738  0.4078
 7756SOL     OW24687   6.961   5.110   4.168 -0.2678  0.2335 -0.0868
 7756SOL    HW124688   7.020   5.185   4.165  2.6566 -1.8764  0.5655
 7756SOL    HW224689   7.018   5.034   4.173 -3.0596 -2.1408 -1.1338
 7757SOL     OW24690   3.503   6.385   7.541  0.1439  0.0740  0.3710
 7757SOL    HW124691   3.580   6.340   7.505  0.1821 -0.4097  1.0362
 7757SOL    HW224692   3.449   6.405   7.465 -0.0823 -1.4973  0.0946
 7758SOL     OW24693   3.311   5.230   7.975 -0.0439  0.0829 -0.1836
 7758SOL    HW124694   3.328   5.141   7.945 -1.1682 -0.4564  0.7003
 7758SOL    HW224695   3.384   5.281   7.940  0.0850 -0.9819 -1.5811
 7759SOL     OW24696   0.330   3.549   7.838 -0.2889 -0.6489  0.2411
 7759SOL    HW124697   0.398   3.496   7.796  0.4825  0.0352  0.5889
 7759SOL    HW224698   0.359   3.556   7.929  0.2961  1.3690 -0.0586
 7760SOL     OW24699   6.634   5.540   4.980  0.0882  0.4158 -0.6359
 7760SOL    HW124700   6.581   5.483   5.036 -0.1058  1.0160 -0.2027
 7760SOL    HW224701   6.581   5.552   4.901 -0.3268  0.8190 -0.3027
 7761SOL     OW24702   7.181   6.546   7.556  0.1600 -0.1584 -0.1958
 7761SOL    HW124703   7.175   6.607   7.483  0.8913  0.0584 -0.0868
 7761SOL    HW224704   7.116   6.577   7.619 -2.5724 -2.0034 -1.8869
 7762SOL     OW24705   2.455   0.370   3.539 -0.5290 -0.1156 -0.1562
 7762SOL    HW124706   2.375   0.317   3.531 -0.7087 -0.2307  1.8505
 7762SOL    HW224707   2.441   0.422   3.618  1.1732  0.2514 -0.0592
 7763SOL     OW24708   6.785   2.826   6.378 -0.1762  0.4252  0.4710
 7763SOL    HW124709   6.755   2.864   6.460 -1.4966  0.0327  0.1898
 7763SOL    HW224710   6.705   2.798   6.333  0.6391 -1.6355  0.1608
 7764SOL     OW24711   1.280   4.388   1.670  0.3686 -0.1539  0.3259
 7764SOL    HW124712   1.255   4.419   1.583  0.0641  0.3073  0.5778
 7764SOL    HW224713   1.278   4.465   1.725  1.6385 -0.2291  0.5192
 7765SOL     OW24714   1.821   4.185   2.527  0.1034  0.2307  0.6253
 7765SOL    HW124715   1.857   4.159   2.442 -1.4563 -1.8113  0.5090
 7765SOL    HW224716   1.754   4.250   2.507 -0.3402 -0.3322  0.2568
 7766SOL     OW24717   6.104   1.427   7.943  0.1981 -0.0789  0.7323
 7766SOL    HW124718   6.042   1.409   8.013  0.4838  1.5634  1.4635
 7766SOL    HW224719   6.054   1.478   7.879  0.2383 -0.6045  0.2699
 7767SOL     OW24720   2.974   6.372   4.710 -1.0438  0.0629 -0.3820
 7767SOL    HW124721   2.968   6.458   4.670  0.0013  0.0224 -0.6470
 7767SOL    HW224722   2.995   6.313   4.638 -2.7044 -0.5818 -0.3726
 7768SOL     OW24723   5.036   5.871   5.040 -0.1321  0.5970 -0.0049
 7768SOL    HW124724   4.979   5.947   5.049  0.3730  1.1496 -1.2651
 7768SOL    HW224725   5.009   5.830   4.957 -0.8411 -1.0002  0.9604
 7769SOL     OW24726   7.959   2.190   4.201  0.3161 -0.0570 -0.1569
 7769SOL    HW124727   7.985   2.277   4.231  0.4549  0.0528 -0.5892
 7769SOL    HW224728   7.907   2.154   4.272 -1.8844  1.3574 -0.9715
 7770SOL     OW24729   7.064   5.827   4.581  0.1129 -0.9155  0.4431
 7770SOL    HW124730   7.130   5.770   4.541  0.4616 -1.3516  1.6040
 7770SOL    HW224731   7.086   5.827   4.674 -1.1661 -0.5731  0.7578
 7771SOL     OW24732   3.122   1.449   1.582 -0.0116 -0.1108 -0.3028
 7771SOL    HW124733   3.062   1.481   1.515  0.4845  1.6171  0.0248
 7771SOL    HW224734   3.075   1.462   1.665  0.1727 -0.2755 -0.1730
 7772SOL     OW24735   6.093   7.811   1.587  0.1777  0.0092 -0.0136
 7772SOL    HW124736   6.056   7.747   1.647  1.4307 -3.4332 -2.6257
 7772SOL    HW224737   6.022   7.832   1.526  0.8039 -2.1257 -1.5606
 7773SOL     OW24738   2.300   2.964   4.756  0.1186 -0.1532 -0.4012
 7773SOL    HW124739   2.274   2.942   4.667  1.8962  0.4908 -1.1050
 7773SOL    HW224740   2.380   3.015   4.747  0.7235 -0.6398  1.5847
 7774SOL     OW24741   0.241   5.493   4.897 -0.5357  0.5986 -0.1143
 7774SOL    HW124742   0.214   5.579   4.929  0.4209  0.9039 -0.0970
 7774SOL    HW224743   0.277   5.448   4.973  0.6965  0.9019 -0.4934
 7775SOL     OW24744   4.734   4.494   1.524 -0.3737  0.6778 -0.3159
 7775SOL    HW124745   4.821   4.455   1.521 -0.7479 -0.2410  0.4489
 7775SOL    HW224746   4.710   4.505   1.432 -0.0805 -0.5153 -0.5522
 7776SOL     OW24747   2.248   7.500   0.727 -0.2139  0.1187 -0.5603
 7776SOL    HW124748   2.170   7.446   0.717 -0.2576  0.2351 -0.8676
 7776SOL    HW224749   2.282   7.478   0.813  0.0253 -0.7321 -0.8685
 7777SOL     OW24750   4.028   2.120   5.386  0.3176  0.8394  0.1727
 7777SOL    HW124751   4.038   2.109   5.481  1.0561  0.6937  0.0846
 7777SOL    HW224752   4.116   2.108   5.351  0.1990  1.7417 -0.4571
 7778SOL     OW24753   3.634   1.114   1.771  0.1994  0.4866  0.1283
 7778SOL    HW124754   3.577   1.094   1.845 -1.4247  1.5989 -0.7741
 7778SOL    HW224755   3.722   1.091   1.802 -0.7005 -1.3316  1.5407
 7779SOL     OW24756   6.867   3.619   3.023  0.0346 -0.3999  0.7596
 7779SOL    HW124757   6.942   3.560   3.021  0.2151 -0.1626  0.3659
 7779SOL    HW224758   6.903   3.705   3.000 -0.5641 -0.5248 -0.8145
 7780SOL     OW24759   6.009   7.479   7.444 -0.4667  0.7781 -0.1508
 7780SOL    HW124760   6.070   7.407   7.454  0.7534  1.7103 -0.6279
 7780SOL    HW224761   5.975   7.469   7.355 -0.6704  0.5078 -0.0415
 7781SOL     OW24762   4.527   6.043   5.113  0.0820  0.2748  0.5012
 7781SOL    HW124763   4.442   6.000   5.125  0.4853 -0.9311 -0.6225
 7781SOL    HW224764   4.506   6.126   5.070 -0.4792 -0.7534 -1.3812
 7782SOL     OW24765   1.212   2.810   0.293 -0.1689 -0.8005  0.4511
 7782SOL    HW124766   1.267   2.765   0.357  1.7657  0.7527 -0.0357
 7782SOL    HW224767   1.225   2.761   0.212 -1.7609 -2.1011  0.9181
 7783SOL     OW24768   3.988   4.627   7.777  0.0639  0.1719  0.4185
 7783SOL    HW124769   3.938   4.558   7.734  1.5961 -0.7223 -0.0288
 7783SOL    HW224770   3.948   4.709   7.748  1.1697 -0.3553 -2.9998
 7784SOL     OW24771   6.058   6.592   0.948  0.9221 -0.2899 -0.4299
 7784SOL    HW124772   6.071   6.684   0.925 -1.4099  0.2467  0.1006
 7784SOL    HW224773   6.053   6.546   0.865  2.0282  0.0683 -0.7008
 7785SOL     OW24774   1.574   3.440   6.708  0.5366  0.1330  0.2305
 7785SOL    HW124775   1.508   3.373   6.690 -0.3366  0.4019  2.1785
 7785SOL    HW224776   1.620   3.408   6.785  0.6168  1.3800  0.7254
 7786SOL     OW24777   1.990   0.113   0.999  0.3511  0.2543 -0.5272
 7786SOL    HW124778   2.080   0.084   0.982  0.6297  1.3825 -1.0730
 7786SOL    HW224779   2.000   0.195   1.047 -0.3941  0.2292 -0.3171
 7787SOL     OW24780   2.957   7.751   7.575  0.0405 -0.5843  0.1209
 7787SOL    HW124781   2.875   7.705   7.555 -0.6533  0.6966 -0.0693
 7787SOL    HW224782   3.022   7.681   7.582 -0.6633 -1.4805 -1.6787
 7788SOL     OW24783   1.704   7.095   1.536  0.6580 -0.0707  0.5938
 7788SOL    HW124784   1.647   7.069   1.607  1.1963  2.7363  2.1793
 7788SOL    HW224785   1.766   7.022   1.527 -1.0885 -1.6812  1.0667
 7789SOL     OW24786   3.870   6.732   6.464 -0.1771 -0.2368  0.6662
 7789SOL    HW124787   3.812   6.768   6.397  0.3829 -0.2051  0.1845
 7789SOL    HW224788   3.831   6.648   6.486  0.6595 -1.1624 -1.1356
 7790SOL     OW24789   7.769   6.194   1.586  0.0315  0.2832  0.3453
 7790SOL    HW124790   7.720   6.139   1.647 -0.3580  0.3133  0.0656
 7790SOL    HW224791   7.847   6.142   1.565 -1.3994 -1.1976 -1.6427
 7791SOL     OW24792   1.039   5.469   1.706  0.0420 -0.2328  0.1636
 7791SOL    HW124793   1.037   5.489   1.613  1.4702 -0.9085 -0.0410
 7791SOL    HW224794   1.125   5.429   1.720  0.0560  0.3290  1.8679
 7792SOL     OW24795   2.478   6.521   7.322 -0.3443 -0.2283 -0.7625
 7792SOL    HW124796   2.404   6.465   7.343  0.0480  0.0002  1.4357
 7792SOL    HW224797   2.441   6.588   7.263 -1.5372 -0.9317 -0.8436
 7793SOL     OW24798   2.781   5.681   3.818 -0.3457 -0.2542 -0.1028
 7793SOL    HW124799   2.857   5.656   3.871 -0.0910  0.5540 -0.0661
 7793SOL    HW224800   2.741   5.598   3.792  0.5341 -0.6864 -0.0992
 7794SOL     OW24801   6.803   0.609   6.294  0.0812 -0.3460  0.8457
 7794SOL    HW124802   6.875   0.546   6.292  1.1178  0.7830 -0.6829
 7794SOL    HW224803   6.735   0.569   6.240  1.3121  0.3822 -1.3972
 7795SOL     OW24804   7.008   6.851   0.929  0.2729 -0.0847 -0.2271
 7795SOL    HW124805   7.089   6.856   0.979 -0.9237  2.1475  1.6935
 7795SOL    HW224806   7.011   6.926   0.869  0.1955 -0.7832 -1.1360
 7796SOL     OW24807   5.189   2.915   3.054 -0.0743  0.1192 -0.2386
 7796SOL    HW124808   5.121   2.982   3.057 -1.2106 -0.8731 -1.6231
 7796SOL    HW224809   5.177   2.874   2.968  0.2838 -2.1042  0.7014
 7797SOL     OW24810   2.390   1.169   5.079  0.4007 -0.0618 -0.1650
 7797SOL    HW124811   2.464   1.109   5.067  0.3078  0.0591 -1.4509
 7797SOL    HW224812   2.353   1.180   4.992 -1.9520 -1.1177  0.6155
 7798SOL     OW24813   2.116   0.438   5.856  0.4073 -0.5165  0.1964
 7798SOL    HW124814   2.168   0.518   5.853  1.0179 -0.9155 -0.2033
 7798SOL    HW224815   2.052   0.453   5.926 -0.0356  0.6448 -0.4292
 7799SOL     OW24816   5.230   6.941   1.223  0.0478  0.6860 -0.7194
 7799SOL    HW124817   5.314   6.940   1.270 -0.1909 -4.7126  0.3069
 7799SOL    HW224818   5.169   6.984   1.283  1.2449  0.6200  0.5963
 7800SOL     OW24819   2.569   0.261   2.671 -1.0756  0.4466 -0.9381
 7800SOL    HW124820   2.501   0.279   2.605 -0.0462  0.4983 -2.0230
 7800SOL    HW224821   2.649   0.299   2.634 -0.7515  1.8471  1.0641
 7801SOL     OW24822   4.705   7.567   6.562  0.0755 -0.2302  0.1293
 7801SOL    HW124823   4.762   7.636   6.596  0.1084 -0.2205  0.0543
 7801SOL    HW224824   4.748   7.538   6.481  1.3170 -1.9287  1.3129
 7802SOL     OW24825   7.512   3.999   0.329  0.2794  0.5904  0.0984
 7802SOL    HW124826   7.553   4.005   0.243 -0.0537  1.8691  0.0204
 7802SOL    HW224827   7.576   3.951   0.382  0.8764  0.5773 -0.6155
 7803SOL     OW24828   7.895   3.672   7.673 -0.3695 -0.0430 -0.2673
 7803SOL    HW124829   7.825   3.624   7.629 -0.5513  0.4771 -0.5483
 7803SOL    HW224830   7.850   3.724   7.740 -0.2146  0.0474 -0.2324
 7804SOL     OW24831   1.843   4.340   7.398 -0.3603 -0.1937  0.3697
 7804SOL    HW124832   1.887   4.269   7.445  0.3721 -0.5939 -0.8794
 7804SOL    HW224833   1.760   4.301   7.369  0.7666 -1.1404 -1.7802
 7805SOL     OW24834   5.906   6.416   4.044 -0.1270  0.4991  0.1632
 7805SOL    HW124835   5.977   6.480   4.043 -0.7156  1.1588  0.2717
 7805SOL    HW224836   5.906   6.381   4.133  1.1275 -0.7238 -0.2808
 7806SOL     OW24837   6.409   3.715   4.153 -0.0691 -0.4358  0.0411
 7806SOL    HW124838   6.388   3.787   4.093 -2.6689 -1.3329 -0.2149
 7806SOL    HW224839   6.338   3.652   4.142  1.3080 -2.3595  1.4091
 7807SOL     OW24840   0.027   3.895   6.657 -0.3115  0.4245 -0.3015
 7807SOL    HW124841   0.111   3.937   6.677 -1.2176  2.1122  0.0813
 7807SOL    HW224842   0.036   3.868   6.565  1.5408 -1.7302  0.4016
 7808SOL     OW24843   1.155   2.562   5.506 -0.0508  0.1384 -0.5263
 7808SOL    HW124844   1.074   2.612   5.516 -0.9022 -0.8100 -2.2346
 7808SOL    HW224845   1.128   2.470   5.517  0.9716 -0.1431 -0.2386
 7809SOL     OW24846   3.712   5.796   7.125 -0.2679 -0.1456 -0.5094
 7809SOL    HW124847   3.701   5.858   7.054 -0.9261 -0.2817 -0.5319
 7809SOL    HW224848   3.703   5.710   7.083 -3.2616 -0.2235  0.1014
 7810SOL     OW24849   4.124   5.526   2.701 -0.6335 -0.5266 -0.3586
 7810SOL    HW124850   4.211   5.495   2.727 -0.3278 -0.8074 -1.6037
 7810SOL    HW224851   4.108   5.481   2.617 -1.5871  0.2240 -0.5880
 7811SOL     OW24852   0.367   1.702   6.101  0.0995 -0.3443 -0.0013
 7811SOL    HW124853   0.455   1.739   6.093 -0.3426  0.8311  0.4053
 7811SOL    HW224854   0.329   1.746   6.177 -0.4866 -1.6004  0.4628
 7812SOL     OW24855   5.311   4.829   4.609 -0.1189 -0.7523  0.2600
 7812SOL    HW124856   5.269   4.805   4.691 -0.2029 -2.3740 -0.2259
 7812SOL    HW224857   5.403   4.810   4.622  0.1539  0.6052  0.5243
 7813SOL     OW24858   0.513   7.402   2.709 -0.4731 -0.6120 -0.4178
 7813SOL    HW124859   0.549   7.350   2.781 -1.8815  0.2406  0.9789
 7813SOL    HW224860   0.526   7.493   2.737  0.0504 -0.2307 -1.8375
 7814SOL     OW24861   2.945   0.335   7.761 -0.1969  0.0369  0.0361
 7814SOL    HW124862   2.932   0.426   7.734  0.4500  0.4820  1.1593
 7814SOL    HW224863   2.954   0.287   7.679 -2.2468  0.6902 -0.6487
 7815SOL     OW24864   5.965   7.328   7.779  0.3445 -0.0882 -0.4446
 7815SOL    HW124865   5.872   7.319   7.799 -0.4288  2.8038 -2.0890
 7815SOL    HW224866   6.007   7.337   7.864 -1.3116  1.1970  0.2977
 7816SOL     OW24867   1.828   0.940   2.101  0.2900 -0.7921 -0.3654
 7816SOL    HW124868   1.741   0.972   2.124  0.6529  0.8975 -1.1537
 7816SOL    HW224869   1.828   0.938   2.005  1.3981  0.1919 -0.4152
 7817SOL     OW24870   6.293   5.911   4.275  0.3024  0.4555 -0.2031
 7817SOL    HW124871   6.214   5.866   4.305 -0.0099  0.7240 -0.6152
 7817SOL    HW224872   6.271   5.943   4.187  1.4844 -1.0863 -1.1180
 7818SOL     OW24873   1.894   2.513   1.345 -0.1970 -0.1715  0.0512
 7818SOL    HW124874   1.888   2.500   1.250  0.1150 -0.3695  0.0597
 7818SOL    HW224875   1.917   2.606   1.354  0.4915 -0.3244 -0.0903
 7819SOL     OW24876   1.154   0.206   5.673  0.3606 -0.2736 -0.0415
 7819SOL    HW124877   1.095   0.153   5.619  0.0984  0.6237 -0.6535
 7819SOL    HW224878   1.109   0.289   5.684  0.8485 -0.1060  0.7613
 7820SOL     OW24879   5.808   4.633   7.899 -0.3648 -0.7116 -0.3199
 7820SOL    HW124880   5.804   4.646   7.804  0.3895 -0.5998 -0.3463
 7820SOL    HW224881   5.902   4.633   7.918 -0.5321  0.8286  0.6422
 7821SOL     OW24882   2.923   3.275   3.490 -0.8484 -0.6452 -0.2975
 7821SOL    HW124883   2.917   3.258   3.584  0.3121 -0.7292 -0.2202
 7821SOL    HW224884   2.937   3.188   3.452 -2.7065 -0.7911 -0.7026
 7822SOL     OW24885   5.931   6.782   5.897 -0.5946 -0.1308 -0.2745
 7822SOL    HW124886   5.928   6.870   5.935  1.5524  0.1941 -0.7415
 7822SOL    HW224887   5.899   6.793   5.808 -1.1934 -0.0106 -0.0497
 7823SOL     OW24888   1.378   4.264   2.503  0.3922 -0.7330  0.5391
 7823SOL    HW124889   1.447   4.292   2.443 -1.3411  2.3604 -0.1989
 7823SOL    HW224890   1.301   4.312   2.475 -2.0727 -3.7473  1.5651
 7824SOL     OW24891   8.055   3.042   4.956 -0.2403 -0.2136  0.5703
 7824SOL    HW124892   8.083   3.048   4.865 -0.9710  2.0750  0.4269
 7824SOL    HW224893   7.994   3.115   4.967  0.0089 -0.2930  2.9581
 7825SOL     OW24894   5.207   5.701   0.522  0.5152  0.3970  0.3326
 7825SOL    HW124895   5.297   5.703   0.489  0.4314  1.4793  0.1099
 7825SOL    HW224896   5.162   5.771   0.473 -0.7349 -0.8236 -0.3331
 7826SOL     OW24897   6.135   0.085   2.728 -0.3171 -0.5857 -0.2234
 7826SOL    HW124898   6.085   0.006   2.705  1.0048 -1.7227  0.6989
 7826SOL    HW224899   6.222   0.053   2.750  1.1392  1.4236 -2.5245
 7827SOL     OW24900   3.567   5.687   2.936 -0.1262  0.3011  0.5215
 7827SOL    HW124901   3.550   5.765   2.988  0.5864 -0.3755  1.7941
 7827SOL    HW224902   3.607   5.625   2.996  0.9731 -0.4219 -0.8850
 7828SOL     OW24903   3.730   1.772   7.960  0.3027 -0.6166  0.0292
 7828SOL    HW124904   3.702   1.858   7.990 -4.4916 -1.6661 -0.7418
 7828SOL    HW224905   3.743   1.721   8.040  1.4799  0.2660  0.4359
 7829SOL     OW24906   3.668   3.504   0.461 -0.2428 -0.2326  0.3692
 7829SOL    HW124907   3.584   3.462   0.439 -0.4610  0.3656  0.0369
 7829SOL    HW224908   3.732   3.458   0.408 -0.5795  0.3116 -0.5247
 7830SOL     OW24909   4.408   2.399   1.841 -0.2873 -0.4527  0.6155
 7830SOL    HW124910   4.387   2.374   1.931 -1.3236  1.1672  0.8742
 7830SOL    HW224911   4.365   2.483   1.829  2.4940  0.9712 -0.3532
 7831SOL     OW24912   1.548   4.006   4.834 -0.1329  0.3195  0.5087
 7831SOL    HW124913   1.634   4.046   4.848  0.8992 -1.7813  0.6416
 7831SOL    HW224914   1.518   3.985   4.923  1.3779 -3.0268  0.3910
 7832SOL     OW24915   5.559   3.988   4.645  0.8015  0.1438  0.0363
 7832SOL    HW124916   5.549   3.970   4.738 -1.0438 -0.0720 -0.1820
 7832SOL    HW224917   5.491   3.936   4.602  2.3221 -0.6392 -1.5571
 7833SOL     OW24918   3.245   1.162   7.044  0.4054 -0.5192 -0.0128
 7833SOL    HW124919   3.303   1.110   6.988 -0.4739  0.5699 -2.0248
 7833SOL    HW224920   3.183   1.098   7.079  1.3721 -1.3252  0.2875
 7834SOL     OW24921   1.380   2.475   0.974 -0.0201  0.0061 -0.0061
 7834SOL    HW124922   1.328   2.473   0.893 -0.0901 -0.0494  0.0402
 7834SOL    HW224923   1.456   2.419   0.954  0.0655  0.1545 -0.1021
 7835SOL     OW24924   0.453   3.101   2.403 -0.1410 -0.2188 -0.2427
 7835SOL    HW124925   0.417   3.167   2.462 -0.4160  0.7774 -1.4792
 7835SOL    HW224926   0.483   3.150   2.327 -0.2962 -1.5140 -1.1772
 7836SOL     OW24927   7.904   2.329   4.963 -0.3917  0.1547  0.4572
 7836SOL    HW124928   7.969   2.259   4.951  0.9107  1.6576 -2.2100
 7836SOL    HW224929   7.932   2.375   5.042 -0.6908 -1.6519  1.6787
 7837SOL     OW24930   4.839   0.819   7.183  0.4315 -0.3317  0.5786
 7837SOL    HW124931   4.900   0.793   7.114 -2.0988 -2.3557 -1.0692
 7837SOL    HW224932   4.853   0.754   7.253  1.3217  0.2577  0.9603
 7838SOL     OW24933   7.555   7.003   2.483  0.1985  0.0172 -0.2304
 7838SOL    HW124934   7.462   7.023   2.476  0.2620 -0.0618 -1.7504
 7838SOL    HW224935   7.578   7.024   2.573 -1.6473 -1.5446  0.6527
 7839SOL     OW24936   4.337   2.217   2.040 -0.1312 -0.2718  0.0555
 7839SOL    HW124937   4.272   2.162   1.996 -0.6257  0.8640 -0.6821
 7839SOL    HW224938   4.366   2.165   2.114 -0.2825 -1.6962 -0.8399
 7840SOL     OW24939   5.650   4.373   2.219  0.4958 -0.0171  0.3538
 7840SOL    HW124940   5.556   4.367   2.202  0.6023 -0.3460 -0.1523
 7840SOL    HW224941   5.660   4.450   2.274 -0.5249 -2.0834  3.7529
 7841SOL     OW24942   5.170   7.954   7.353  0.2055 -0.5092 -0.7903
 7841SOL    HW124943   5.219   7.965   7.434 -0.0004 -0.1107 -0.7183
 7841SOL    HW224944   5.227   7.989   7.285 -0.2595  0.6200 -0.6186
 7842SOL     OW24945   7.055   4.484   1.482 -0.3476 -0.0094  0.1738
 7842SOL    HW124946   7.111   4.414   1.516  0.0722  0.3210  0.1681
 7842SOL    HW224947   6.972   4.440   1.462 -0.5647 -0.2393  1.4850
 7843SOL     OW24948   3.398   5.171   4.207  0.4743  0.1306 -0.2643
 7843SOL    HW124949   3.320   5.140   4.253 -0.6050 -1.3053 -2.8611
 7843SOL    HW224950   3.459   5.097   4.211  0.2639 -0.1190 -1.3006
 7844SOL     OW24951   0.681   7.448   6.678 -0.1873 -0.4729 -0.0592
 7844SOL    HW124952   0.763   7.451   6.628 -0.5401  0.0281 -0.6130
 7844SOL    HW224953   0.700   7.496   6.759 -0.6974  2.0112 -1.3434
 7845SOL     OW24954   3.079   5.702   1.238 -0.1974  0.3922  0.2133
 7845SOL    HW124955   3.053   5.639   1.305 -0.4390  0.8756  0.5799
 7845SOL    HW224956   3.062   5.657   1.155  0.9696 -0.5605  0.4600
 7846SOL     OW24957   6.349   0.766   0.971  0.1084 -0.0529 -0.5123
 7846SOL    HW124958   6.290   0.788   1.043  0.5312  2.1721 -0.7703
 7846SOL    HW224959   6.428   0.735   1.014 -0.1771 -0.1839 -0.0712
 7847SOL     OW24960   5.950   0.525   4.765  0.0905 -0.4347  0.3985
 7847SOL    HW124961   5.866   0.483   4.782  0.3174 -1.1820 -0.3080
 7847SOL    HW224962   5.926   0.612   4.731 -0.3752  0.5331  2.9788
 7848SOL     OW24963   7.678   6.794   0.305  0.1601 -0.0406  0.0993
 7848SOL    HW124964   7.640   6.843   0.378 -2.3186 -0.8496 -0.5312
 7848SOL    HW224965   7.644   6.837   0.226 -0.3764 -1.4573 -0.4905
 7849SOL     OW24966   7.116   0.991   1.511  0.2194  0.0377  0.3625
 7849SOL    HW124967   7.055   0.936   1.463  0.4576 -0.0652  0.1795
 7849SOL    HW224968   7.201   0.948   1.501  0.4064  0.4346  0.2196
 7850SOL     OW24969   0.505   5.799   1.918  0.0101 -0.1438  0.2214
 7850SOL    HW124970   0.423   5.821   1.873 -1.0803 -1.3818  1.4945
 7850SOL    HW224971   0.517   5.705   1.901  0.9812 -0.0445  0.3315
 7851SOL     OW24972   7.531   3.199   3.281  0.6830 -0.0962  0.5288
 7851SOL    HW124973   7.483   3.117   3.267  0.2049  0.1634  0.6328
 7851SOL    HW224974   7.615   3.172   3.318  1.5418 -0.7375 -1.6910
 7852SOL     OW24975   6.988   2.773   2.517  0.4446  0.4339  0.3634
 7852SOL    HW124976   7.056   2.716   2.553 -0.3799  1.0360  3.0910
 7852SOL    HW224977   6.956   2.726   2.440  1.3875 -1.6588  1.1833
 7853SOL     OW24978   7.289   0.714   5.593 -0.7033 -0.0890 -0.4435
 7853SOL    HW124979   7.384   0.731   5.588 -0.6156 -0.0010  1.0864
 7853SOL    HW224980   7.262   0.702   5.502  0.4801  1.5660 -1.0627
 7854SOL     OW24981   1.405   6.072   6.211 -0.1441  0.1671 -0.0203
 7854SOL    HW124982   1.330   6.132   6.217 -0.9175 -0.7932  0.1870
 7854SOL    HW224983   1.457   6.090   6.289 -0.2556  0.7217 -0.0728
 7855SOL     OW24984   6.280   5.756   3.976 -0.0120  0.0744  0.1156
 7855SOL    HW124985   6.363   5.803   3.970 -0.6205  1.8287  3.2177
 7855SOL    HW224986   6.300   5.677   4.026 -0.0745  0.1709  0.2956
 7856SOL     OW24987   3.189   2.398   6.953 -0.5455 -0.0238 -0.1856
 7856SOL    HW124988   3.170   2.304   6.954  0.5665 -0.2668 -0.7575
 7856SOL    HW224989   3.176   2.424   6.862  0.6773  0.0382 -0.3552
 7857SOL     OW24990   4.032   0.027   7.696 -0.2185 -0.8738  0.0556
 7857SOL    HW124991   4.085   0.026   7.616  0.0875 -0.6862  0.2545
 7857SOL    HW224992   4.087   0.070   7.761  0.3659 -2.8327  0.9363
 7858SOL     OW24993   0.781   0.128   5.443 -0.6506 -0.1730  0.4046
 7858SOL    HW124994   0.794   0.036   5.468  1.4592 -0.6478 -2.0162
 7858SOL    HW224995   0.687   0.136   5.429 -0.9562 -1.7701  1.3293
 7859SOL     OW24996   2.622   4.397   4.649 -0.2775  0.2794 -0.1861
 7859SOL    HW124997   2.548   4.350   4.689  0.7036 -0.5563  0.7225
 7859SOL    HW224998   2.582   4.476   4.611 -1.7049 -0.3997 -0.1836
 7860SOL     OW24999   2.778   1.206   1.606  0.5557  0.1035  0.3763
 7860SOL    HW125000   2.796   1.298   1.626 -0.8177  0.3817  0.4337
 7860SOL    HW225001   2.682   1.201   1.601  0.6484 -0.9864 -1.1925
 7861SOL     OW25002   2.157   6.064   8.012  0.2930 -0.1996  0.4145
 7861SOL    HW125003   2.067   6.032   8.019 -0.0786  1.0991  2.1297
 7861SOL    HW225004   2.190   6.062   8.101  2.0080 -0.6719 -0.1868
 7862SOL     OW25005   1.112   5.284   4.206 -0.3828 -0.2977  0.3578
 7862SOL    HW125006   1.066   5.368   4.196 -1.3213 -0.8127  0.2324
 7862SOL    HW225007   1.205   5.308   4.213 -0.3871  0.6410 -1.8742
 7863SOL     OW25008   2.341   1.395   5.888  0.3613 -0.0740 -0.1096
 7863SOL    HW125009   2.317   1.445   5.810 -1.4150 -0.3010  0.2533
 7863SOL    HW225010   2.262   1.392   5.941  1.4164 -0.2577  1.5504
 7864SOL     OW25011   4.996   1.058   0.385 -0.1964  0.2975 -0.2129
 7864SOL    HW125012   4.920   1.086   0.436  1.6383  0.7467  2.5072
 7864SOL    HW225013   5.013   0.968   0.413  0.6472  0.4197 -0.3018
 7865SOL     OW25014   0.500   4.792   3.821  0.2712 -0.6696 -0.3504
 7865SOL    HW125015   0.560   4.721   3.843  0.5353 -0.2500  0.3160
 7865SOL    HW225016   0.440   4.797   3.895 -0.1955 -0.6621 -0.7217
 7866SOL     OW25017   2.415   1.784   3.550 -0.1061  0.0746  0.3573
 7866SOL    HW125018   2.369   1.722   3.606 -0.3439  1.8122  2.2519
 7866SOL    HW225019   2.346   1.833   3.506  0.0223  0.2393  0.3385
 7867SOL     OW25020   4.694   2.548   0.512 -0.6840 -0.0406  0.1673
 7867SOL    HW125021   4.734   2.634   0.502  2.5821 -1.3243  0.9786
 7867SOL    HW225022   4.679   2.518   0.423  1.0717  0.1806 -0.2389
 7868SOL     OW25023   4.509   4.473   6.666 -0.4025  0.4615 -0.1791
 7868SOL    HW125024   4.465   4.433   6.591 -2.5368  1.1688  0.6402
 7868SOL    HW225025   4.583   4.520   6.628  1.0795 -2.5335 -1.3818
 7869SOL     OW25026   6.608   4.422   7.197 -0.0360 -0.3309 -0.0460
 7869SOL    HW125027   6.531   4.458   7.154 -1.8448 -0.6610  2.6776
 7869SOL    HW225028   6.682   4.467   7.155 -1.8601  2.1022 -0.8952
 7870SOL     OW25029   1.073   2.236   4.627 -0.2767 -0.1028  0.2055
 7870SOL    HW125030   0.992   2.236   4.576  0.0902 -0.6029 -0.3925
 7870SOL    HW225031   1.048   2.196   4.710 -0.7065 -0.0160  0.1225
 7871SOL     OW25032   2.364   0.821   3.604 -1.0168 -0.7029  0.3555
 7871SOL    HW125033   2.438   0.762   3.618 -1.7853 -1.7820 -0.0472
 7871SOL    HW225034   2.293   0.764   3.575 -1.0348  0.6722 -2.7452
 7872SOL     OW25035   3.681   3.868   7.338  0.1202 -0.1110 -0.4000
 7872SOL    HW125036   3.617   3.924   7.382  0.6691  0.1998  0.0224
 7872SOL    HW225037   3.762   3.919   7.339  0.7001 -0.9963  0.2201
 7873SOL     OW25038   2.098   1.645   2.453 -0.3402  0.1119  0.0269
 7873SOL    HW125039   2.033   1.579   2.479 -0.5916  0.2601 -0.2150
 7873SOL    HW225040   2.120   1.690   2.535  2.4947 -2.5524  0.9041
 7874SOL     OW25041   6.030   5.009   4.943  0.3740 -0.1802  0.1714
 7874SOL    HW125042   6.036   5.095   4.984  0.8230 -0.1885  0.1336
 7874SOL    HW225043   6.064   5.022   4.854 -0.2968 -0.2300 -0.0950
 7875SOL     OW25044   1.739   6.797   1.755  0.3840  0.1340  0.2289
 7875SOL    HW125045   1.821   6.837   1.784  1.0620 -1.8486  1.2099
 7875SOL    HW225046   1.676   6.821   1.823  0.6333  0.0458  0.4957
 7876SOL     OW25047   5.044   4.921   2.513  0.1435  0.2025  0.6067
 7876SOL    HW125048   4.994   4.877   2.582  1.2458 -0.9534  0.6887
 7876SOL    HW225049   5.135   4.910   2.538  0.5519  0.1220 -0.8253
 7877SOL     OW25050   1.107   1.073   8.002  0.5485  0.5152 -0.4673
 7877SOL    HW125051   1.126   1.134   8.072 -0.4320  1.0179 -0.6217
 7877SOL    HW225052   1.155   0.993   8.025  0.9109  0.9579  0.3231
 7878SOL     OW25053   6.683   6.335   6.061  0.4608  0.1732 -0.0911
 7878SOL    HW125054   6.703   6.351   6.153 -0.2428  2.5666 -0.2896
 7878SOL    HW225055   6.698   6.419   6.018 -0.8883 -0.4216 -1.8522
 7879SOL     OW25056   1.385   7.791   6.323  0.1246  0.2916 -0.7049
 7879SOL    HW125057   1.435   7.796   6.242  1.1237  2.2933 -0.0371
 7879SOL    HW225058   1.358   7.881   6.341 -1.6026 -0.3680  0.2813
 7880SOL     OW25059   7.724   4.418   6.531 -0.1265 -0.3323  0.2664
 7880SOL    HW125060   7.644   4.459   6.564  1.5236  2.1091  1.5952
 7880SOL    HW225061   7.781   4.492   6.509  1.7379 -1.9739 -0.7529
 7881SOL     OW25062   0.817   5.273   3.896  0.6674 -0.4862 -0.1376
 7881SOL    HW125063   0.786   5.363   3.905  1.6718 -0.1676  0.2796
 7881SOL    HW225064   0.775   5.241   3.816 -2.7608 -0.9749  1.6884
 7882SOL     OW25065   3.941   7.391   0.991 -0.2209 -0.0543  0.6328
 7882SOL    HW125066   4.017   7.333   0.999 -0.2467 -0.2482 -0.4372
 7882SOL    HW225067   3.868   7.333   0.973 -0.9118 -0.0043  3.0051
 7883SOL     OW25068   4.374   1.220   7.775 -0.6132  0.0362  0.6071
 7883SOL    HW125069   4.386   1.262   7.690  1.7557  1.4497  1.5509
 7883SOL    HW225070   4.462   1.197   7.803 -1.3031 -0.1254  2.8196
 7884SOL     OW25071   2.665   7.766   4.271  0.1542  0.2264 -0.2795
 7884SOL    HW125072   2.753   7.768   4.235  0.9610  0.3350  1.5975
 7884SOL    HW225073   2.648   7.673   4.289 -0.8223 -0.0134 -2.1810
 7885SOL     OW25074   2.899   7.231   4.410 -0.1887 -0.2120 -0.3115
 7885SOL    HW125075   2.832   7.230   4.342 -0.6629  2.8149 -0.0524
 7885SOL    HW225076   2.977   7.267   4.367  0.3570 -0.8240  0.1344
 7886SOL     OW25077   8.012   3.042   6.146  0.6902 -0.2720 -0.2492
 7886SOL    HW125078   7.963   3.100   6.204  1.6280  0.3914 -0.0834
 7886SOL    HW225079   8.103   3.051   6.175  1.2486  0.3537 -2.0448
 7887SOL     OW25080   8.020   2.775   4.083  0.8792 -0.3723  0.3377
 7887SOL    HW125081   7.935   2.782   4.125  1.0278 -0.9241  0.7519
 7887SOL    HW225082   8.049   2.865   4.070 -0.5244 -0.1049 -1.4052
 7888SOL     OW25083   4.948   5.278   1.296 -0.2277 -1.0767 -0.1273
 7888SOL    HW125084   4.863   5.297   1.256 -0.3732  1.1024  1.0622
 7888SOL    HW225085   5.007   5.345   1.261  0.8453 -2.1030 -0.3517
 7889SOL     OW25086   7.628   7.925   0.874  0.3521  0.2630 -0.3391
 7889SOL    HW125087   7.562   7.858   0.896 -0.1449  0.9385  0.2693
 7889SOL    HW225088   7.683   7.883   0.807 -0.5620 -0.4005 -0.7019
 7890SOL     OW25089   0.525   6.543   7.840 -0.4743 -0.1788  0.0131
 7890SOL    HW125090   0.592   6.496   7.890  0.6312 -0.9374 -2.0516
 7890SOL    HW225091   0.574   6.607   7.789 -1.6553  1.1078  0.4181
 7891SOL     OW25092   1.455   4.406   5.340 -0.0583 -0.0505 -0.3477
 7891SOL    HW125093   1.445   4.501   5.343  0.5019  0.0128 -0.4109
 7891SOL    HW225094   1.490   4.388   5.253  0.2837 -0.2715 -0.1650
 7892SOL     OW25095   4.643   2.899   3.154 -0.2914 -0.1299 -0.2365
 7892SOL    HW125096   4.595   2.817   3.155  0.6529 -0.7614 -1.9610
 7892SOL    HW225097   4.586   2.962   3.198 -0.7559 -1.8195  1.7027
 7893SOL     OW25098   3.049   0.027   6.787  0.1687  0.1853 -0.1100
 7893SOL    HW125099   3.141   0.053   6.792  0.3785 -0.4732 -0.4863
 7893SOL    HW225100   3.023   0.010   6.877  0.7618 -0.7906 -0.1146
 7894SOL     OW25101   0.918   4.562   0.730  0.0414 -0.3144 -0.4191
 7894SOL    HW125102   0.969   4.642   0.727  0.8119 -0.7030  1.2739
 7894SOL    HW225103   0.880   4.554   0.642  1.9029  0.6074 -1.3483
 7895SOL     OW25104   6.450   3.917   6.156  0.3649  0.2593 -0.0329
 7895SOL    HW125105   6.441   4.012   6.167 -0.9686  0.1147  0.2283
 7895SOL    HW225106   6.388   3.894   6.087  1.1775 -0.3442 -0.5885
 7896SOL     OW25107   0.922   5.055   4.184 -0.0813  0.2716  0.4444
 7896SOL    HW125108   1.002   5.106   4.196 -0.0381  0.0643  1.0396
 7896SOL    HW225109   0.855   5.120   4.166 -0.3324  0.6962  2.6449
 7897SOL     OW25110   6.806   2.703   5.411  0.0633  0.5264  0.8705
 7897SOL    HW125111   6.870   2.657   5.356 -0.2840  0.8062  0.2155
 7897SOL    HW225112   6.826   2.675   5.500  0.6562  0.0793  0.6046
 7898SOL     OW25113   3.180   2.856   1.464 -0.5464 -0.6061 -0.2397
 7898SOL    HW125114   3.170   2.774   1.512 -0.8927  0.4424  1.5597
 7898SOL    HW225115   3.091   2.883   1.444 -0.4377 -0.5860 -0.7140
 7899SOL     OW25116   1.586   3.300   6.291  0.0852  0.0487  0.1813
 7899SOL    HW125117   1.647   3.316   6.219  0.9182  1.7293  1.2018
 7899SOL    HW225118   1.642   3.275   6.365 -0.7073 -1.0654  0.4311
 7900SOL     OW25119   4.929   3.799   1.933 -0.4678  0.0937 -0.7549
 7900SOL    HW125120   4.912   3.763   2.020  0.2541 -0.5084 -0.8592
 7900SOL    HW225121   4.855   3.858   1.917 -1.2056 -0.6626 -0.2120
 7901SOL     OW25122   3.110   0.907   7.170 -0.0783 -0.7411  0.0377
 7901SOL    HW125123   3.115   0.815   7.144 -1.1977 -0.8448  0.1374
 7901SOL    HW225124   3.021   0.917   7.204 -0.1771  0.5396 -0.5643
 7902SOL     OW25125   3.542   4.238   2.646 -0.6209 -0.1011 -0.0108
 7902SOL    HW125126   3.595   4.172   2.691  0.5526  0.1190 -1.0184
 7902SOL    HW225127   3.598   4.315   2.641 -1.4832  0.5370 -0.0581
 7903SOL     OW25128   8.006   1.262   6.794  0.0767 -0.0675  0.3445
 7903SOL    HW125129   8.077   1.215   6.750  0.7387  1.3575 -0.1639
 7903SOL    HW225130   8.043   1.287   6.879  0.3678  1.0803 -0.1050
 7904SOL     OW25131   5.350   1.344   6.584  0.2324 -0.1773  0.1274
 7904SOL    HW125132   5.427   1.354   6.639 -0.2863 -1.1986  1.0825
 7904SOL    HW225133   5.356   1.416   6.520  1.4245  0.3596  0.8153
 7905SOL     OW25134   2.551   4.363   5.073 -0.3177 -0.2200 -0.2894
 7905SOL    HW125135   2.623   4.353   5.010 -0.9770  0.1889 -1.1410
 7905SOL    HW225136   2.592   4.353   5.159  0.8319  0.4264 -0.7346
 7906SOL     OW25137   5.845   0.936   2.364  0.2372 -0.0818  0.1790
 7906SOL    HW125138   5.884   0.863   2.412  0.6107 -0.5838 -0.8529
 7906SOL    HW225139   5.812   0.896   2.283  0.2352  0.8544 -0.2924
 7907SOL     OW25140   0.657   0.893   4.351 -0.2338  0.4320 -0.0964
 7907SOL    HW125141   0.599   0.969   4.337 -0.4484 -0.0394 -2.1667
 7907SOL    HW225142   0.725   0.903   4.284  2.3212  1.0964  2.4106
 7908SOL     OW25143   5.200   5.600   4.767 -0.2320 -0.0167  0.2392
 7908SOL    HW125144   5.268   5.563   4.711 -0.6919 -1.6132  0.6925
 7908SOL    HW225145   5.194   5.539   4.841 -1.1309  0.8972  0.9524
 7909SOL     OW25146   5.606   3.253   5.255  0.0072  0.3504  0.3858
 7909SOL    HW125147   5.601   3.233   5.348  0.9855  1.8367  0.8059
 7909SOL    HW225148   5.619   3.348   5.252  1.9579  0.1054 -1.1562
 7910SOL     OW25149   7.582   5.564   1.966 -0.1066 -0.1169  0.2908
 7910SOL    HW125150   7.536   5.540   2.047  0.3582  0.7285  0.8167
 7910SOL    HW225151   7.634   5.640   1.990 -1.4398  1.3810 -1.2910
 7911SOL     OW25152   5.161   7.963   0.012 -0.0382  0.1856 -0.1738
 7911SOL    HW125153   5.147   8.011   0.093 -0.7685  1.5903 -1.1114
 7911SOL    HW225154   5.227   8.013  -0.035  0.2043 -0.4917 -0.5782
 7912SOL     OW25155   1.999   7.939   2.258  0.3597  0.2951 -0.0259
 7912SOL    HW125156   1.913   7.980   2.268  0.2319 -0.1328  0.6535
 7912SOL    HW225157   1.990   7.854   2.300  0.8349 -0.1520 -0.8014
 7913SOL     OW25158   0.193   2.996   2.324  0.2753  0.1630 -0.6215
 7913SOL    HW125159   0.281   3.020   2.351  0.9711 -0.9269 -1.8079
 7913SOL    HW225160   0.137   3.064   2.361  1.5351  0.5643  0.6268
 7914SOL     OW25161   5.446   0.066   3.866 -0.6618 -0.9006  0.2721
 7914SOL    HW125162   5.474   0.078   3.776 -2.8965  0.1605 -0.3699
 7914SOL    HW225163   5.477  -0.021   3.890 -1.9972 -2.2124 -2.3584
 7915SOL     OW25164   4.243   4.681   2.430  0.3514 -0.0095  0.1794
 7915SOL    HW125165   4.274   4.724   2.509 -0.4956  1.8030 -0.4125
 7915SOL    HW225166   4.162   4.727   2.408  0.8517 -0.0665 -2.0362
 7916SOL     OW25167   2.624   6.960   3.536  0.0645  0.3106 -0.0147
 7916SOL    HW125168   2.561   6.957   3.609 -0.8879 -1.7898 -0.8500
 7916SOL    HW225169   2.569   6.969   3.458  0.9186  0.0228 -0.6561
 7917SOL     OW25170   5.852   0.308   0.161  0.5312  0.3942  0.2619
 7917SOL    HW125171   5.900   0.369   0.106 -0.7036 -0.4120 -1.8284
 7917SOL    HW225172   5.778   0.359   0.194  0.5513  0.5327  0.0932
 7918SOL     OW25173   6.448   7.358   3.120  0.0445 -0.0135  0.7008
 7918SOL    HW125174   6.416   7.447   3.134 -0.1053  0.0445  0.0425
 7918SOL    HW225175   6.490   7.334   3.202  0.3884  0.7902  0.7664
 7919SOL     OW25176   6.623   0.616   0.811  0.3876  0.0023  0.1431
 7919SOL    HW125177   6.588   0.533   0.779  0.8242  0.2112 -0.8995
 7919SOL    HW225178   6.545   0.671   0.824  0.0672 -0.6710  1.1854
 7920SOL     OW25179   2.334   2.162   5.755 -0.2969  0.2091  0.2821
 7920SOL    HW125180   2.324   2.233   5.819  1.1689  0.3243  0.4251
 7920SOL    HW225181   2.269   2.097   5.781 -2.3845  1.8622 -0.4242
 7921SOL     OW25182   4.798   4.163   6.818 -0.3129 -0.0348 -0.2047
 7921SOL    HW125183   4.854   4.140   6.892  0.4952  0.0284 -0.7870
 7921SOL    HW225184   4.792   4.258   6.821 -0.5724 -0.0527 -0.0251
 7922SOL     OW25185   1.280   7.127   4.133 -0.3889  0.1832 -0.3268
 7922SOL    HW125186   1.376   7.120   4.129 -0.4905 -0.8866 -3.5403
 7922SOL    HW225187   1.249   7.077   4.058 -3.6114 -0.8227  1.4779
 7923SOL     OW25188   3.531   3.230   3.194 -0.0927  0.4572  0.2508
 7923SOL    HW125189   3.590   3.262   3.126  0.1055 -2.2766 -0.9853
 7923SOL    HW225190   3.444   3.255   3.164  0.0494 -0.1042 -0.6623
 7924SOL     OW25191   6.688   3.930   0.343  0.1669 -0.2485 -0.0333
 7924SOL    HW125192   6.743   3.979   0.404 -0.0234  0.5673 -0.5076
 7924SOL    HW225193   6.659   3.854   0.394  0.6094  0.0298  0.6556
 7925SOL     OW25194   6.262   6.016   0.434 -0.2018 -0.1787  0.4680
 7925SOL    HW125195   6.273   5.921   0.434  0.8993 -0.0955 -1.1258
 7925SOL    HW225196   6.307   6.045   0.514  1.6309 -0.8401 -0.2526
 7926SOL     OW25197   3.180   2.865   7.379 -0.8655  0.3675  0.0748
 7926SOL    HW125198   3.145   2.803   7.315  0.3016  0.1099 -0.3314
 7926SOL    HW225199   3.131   2.946   7.362 -0.5388  0.3255 -1.1994
 7927SOL     OW25200   2.571   4.659   4.904  0.0770  0.0318  0.0347
 7927SOL    HW125201   2.507   4.599   4.943 -0.4601  0.6807  0.1806
 7927SOL    HW225202   2.545   4.666   4.812  1.1727 -1.2749 -0.4138
 7928SOL     OW25203   4.644   1.162   7.806 -0.5723  0.1421  0.1034
 7928SOL    HW125204   4.709   1.092   7.800 -0.9864 -0.2240 -0.2005
 7928SOL    HW225205   4.667   1.210   7.885 -0.6952 -0.7632  0.6967
 7929SOL     OW25206   5.495   7.805   0.337 -0.1908 -0.0156 -0.4538
 7929SOL    HW125207   5.540   7.839   0.260  2.4094 -0.2563  0.8681
 7929SOL    HW225208   5.510   7.711   0.334  0.1997  0.0088  0.4933
 7930SOL     OW25209   7.215   3.966   3.495  0.1263 -0.4304  0.3567
 7930SOL    HW125210   7.177   3.996   3.578 -1.8250  0.7948 -0.9158
 7930SOL    HW225211   7.309   3.959   3.513 -0.0364  1.3120  2.2432
 7931SOL     OW25212   2.271   3.258   7.434  0.0616 -0.1654 -0.1669
 7931SOL    HW125213   2.242   3.348   7.421 -1.0695 -0.1090  2.2992
 7931SOL    HW225214   2.194   3.212   7.468  0.3813 -2.3074 -2.0740
 7932SOL     OW25215   7.189   0.369   7.565  0.0801  0.3872  0.2214
 7932SOL    HW125216   7.205   0.276   7.583  2.2766  0.9857  1.9181
 7932SOL    HW225217   7.169   0.372   7.472  0.7294 -1.7220 -0.0533
 7933SOL     OW25218   3.026   0.380   5.413  0.2274  0.3107 -0.2502
 7933SOL    HW125219   3.033   0.408   5.322 -1.4125  1.9883  0.0752
 7933SOL    HW225220   2.934   0.354   5.423 -0.0194  1.6663  1.2967
 7934SOL     OW25221   7.246   3.815   6.373  0.2499  0.4387  0.1469
 7934SOL    HW125222   7.199   3.880   6.321 -0.5185  1.2833  1.8196
 7934SOL    HW225223   7.189   3.738   6.373  0.2212  0.4591 -0.1909
 7935SOL     OW25224   6.799   4.696   4.096  0.7140  0.7357 -0.1333
 7935SOL    HW125225   6.718   4.742   4.076  0.0562  0.5221  1.7643
 7935SOL    HW225226   6.793   4.614   4.047  0.0428  0.9626 -0.4372
 7936SOL     OW25227   0.038   6.812   5.392 -0.3438  0.1380  0.2957
 7936SOL    HW125228   0.112   6.843   5.443 -0.5045  0.4321  0.3509
 7936SOL    HW225229  -0.039   6.841   5.441 -0.5757  2.7637 -1.4190
 7937SOL     OW25230   7.991   7.621   7.113 -0.9163 -0.1358  0.1730
 7937SOL    HW125231   7.931   7.692   7.092 -0.1790  0.6967  0.8033
 7937SOL    HW225232   7.934   7.545   7.128 -1.6592  0.0754 -1.3672
 7938SOL     OW25233   0.650   2.408   7.526  0.1559 -0.0125 -0.5933
 7938SOL    HW125234   0.631   2.315   7.539 -2.4026  0.3887 -0.9193
 7938SOL    HW225235   0.667   2.442   7.614  1.7035 -0.8595 -0.5331
 7939SOL     OW25236   6.298   4.854   5.931  0.3518  0.8354 -0.0861
 7939SOL    HW125237   6.346   4.772   5.918  0.1339  0.7495 -0.3757
 7939SOL    HW225238   6.233   4.854   5.860 -1.5310 -0.1040  1.5251
 7940SOL     OW25239   6.498   7.296   3.401 -0.3415  0.1618 -0.1301
 7940SOL    HW125240   6.587   7.321   3.423 -0.6076  2.6487 -1.4904
 7940SOL    HW225241   6.498   7.200   3.404  1.8853  0.1351  1.5193
 7941SOL     OW25242   7.756   5.736   2.363 -0.4453  0.2060  0.5154
 7941SOL    HW125243   7.698   5.763   2.435  1.4234 -0.7611  2.4897
 7941SOL    HW225244   7.827   5.801   2.364 -0.7763  0.6266 -1.0151
 7942SOL     OW25245   0.002   4.223   4.798  0.7893 -0.6408  0.0305
 7942SOL    HW125246   0.081   4.252   4.844 -1.7255  6.5497  1.1583
 7942SOL    HW225247   0.023   4.234   4.705  1.5688 -0.4362  0.2218
 7943SOL     OW25248   4.784   4.287   5.152 -0.0742  0.6428 -0.1981
 7943SOL    HW125249   4.719   4.260   5.217 -0.2323  0.7997 -0.2883
 7943SOL    HW225250   4.737   4.283   5.068 -0.2946  1.8146 -0.1472
 7944SOL     OW25251   4.517   0.586   3.519 -0.2091 -0.2908 -0.4003
 7944SOL    HW125252   4.463   0.633   3.455 -0.4907 -0.8717 -0.6088
 7944SOL    HW225253   4.475   0.604   3.603  2.3790  3.7259  0.3007
 7945SOL     OW25254   3.964   4.237   1.733 -0.1232 -0.4339  0.2561
 7945SOL    HW125255   4.014   4.157   1.718  0.9314 -0.0702  1.6278
 7945SOL    HW225256   3.972   4.253   1.827 -0.0195  1.4751 -0.0340
 7946SOL     OW25257   0.582   5.556   3.622 -0.4653  0.2238  0.5929
 7946SOL    HW125258   0.650   5.622   3.639  0.0858  0.1819 -1.2256
 7946SOL    HW225259   0.508   5.607   3.590 -0.9473  0.1723  1.6001
 7947SOL     OW25260   3.424   1.039   6.664 -0.1245 -0.0874 -0.1848
 7947SOL    HW125261   3.454   0.949   6.645  3.5891  0.7545  0.8472
 7947SOL    HW225262   3.385   1.033   6.751  0.3056 -0.6787 -0.0210
 7948SOL     OW25263   2.630   1.270   3.852  0.2768  0.0741 -0.2388
 7948SOL    HW125264   2.579   1.340   3.813  1.0793  0.7854 -0.0201
 7948SOL    HW225265   2.669   1.224   3.778  1.5050  1.1972 -0.3074
 7949SOL     OW25266   1.965   5.918   5.088  0.7618 -0.2695 -0.1052
 7949SOL    HW125267   1.972   5.833   5.045  0.1099  0.0666 -0.8878
 7949SOL    HW225268   1.874   5.943   5.079  1.0090  0.6533 -0.1361
 7950SOL     OW25269   4.950   3.095   0.431  0.2740 -0.5441  0.5144
 7950SOL    HW125270   5.017   3.105   0.363  0.3058  2.1388  0.8093
 7950SOL    HW225271   4.998   3.076   0.511  0.8410  1.7646  0.8074
 7951SOL     OW25272   4.736   1.966   3.126 -0.2906 -1.0795  0.2344
 7951SOL    HW125273   4.725   2.037   3.190 -2.2088 -2.4478  1.5608
 7951SOL    HW225274   4.722   2.007   3.041 -0.8577  0.2169  0.9320
 7952SOL     OW25275   3.127   0.526   5.168 -0.1171 -0.3284  0.4880
 7952SOL    HW125276   3.198   0.590   5.160  0.2375 -0.7771 -0.0847
 7952SOL    HW225277   3.049   0.572   5.135  0.9075 -1.4447 -4.2727
 7953SOL     OW25278   0.149   2.942   0.520  0.5057 -0.6844 -0.0764
 7953SOL    HW125279   0.191   3.000   0.585 -1.2720  1.0118 -0.3306
 7953SOL    HW225280   0.222   2.897   0.477  1.8720  0.0355  1.3703
 7954SOL     OW25281   0.168   2.308   3.132  0.8103  0.7338 -0.4885
 7954SOL    HW125282   0.261   2.287   3.136  0.8996  1.1971 -0.0743
 7954SOL    HW225283   0.156   2.342   3.043  0.9497  0.2947 -0.6796
 7955SOL     OW25284   4.007   6.902   7.151 -0.3959 -0.5736 -0.4378
 7955SOL    HW125285   4.085   6.856   7.118  0.1936 -1.5955  2.1202
 7955SOL    HW225286   4.038   6.991   7.169 -0.6034 -0.1430 -2.0306
 7956SOL     OW25287   4.507   6.243   4.117  0.7322 -0.2254 -0.5866
 7956SOL    HW125288   4.441   6.295   4.162 -0.7709 -2.0706 -0.5376
 7956SOL    HW225289   4.572   6.307   4.086 -0.5321  1.5314  0.2563
 7957SOL     OW25290   1.118   1.114   6.354  0.4185  0.3626 -0.1160
 7957SOL    HW125291   1.128   1.167   6.433 -1.9612  0.3489  0.2655
 7957SOL    HW225292   1.075   1.034   6.384  2.5774 -1.2010 -0.9305
 7958SOL     OW25293   6.135   5.707   2.938  0.4402  0.0773 -0.2491
 7958SOL    HW125294   6.213   5.681   2.889  0.9935 -0.8809  1.0597
 7958SOL    HW225295   6.165   5.779   2.994  0.6729 -0.9476  0.9778
 7959SOL     OW25296   3.864   4.957   0.977 -0.0720  0.0024  0.1618
 7959SOL    HW125297   3.911   4.892   1.028  0.4690  1.0146  0.9848
 7959SOL    HW225298   3.927   5.027   0.963 -0.3384 -0.0537 -1.5502
 7960SOL     OW25299   4.591   6.101   4.545 -0.5456 -0.4570 -0.2189
 7960SOL    HW125300   4.533   6.037   4.587 -0.4627 -0.6056 -0.3288
 7960SOL    HW225301   4.603   6.067   4.456 -0.3531 -0.3866 -0.2199
 7961SOL     OW25302   1.018   7.102   5.225  0.1498 -0.2478 -0.0557
 7961SOL    HW125303   1.023   7.033   5.291 -0.3811  1.5324  1.9874
 7961SOL    HW225304   0.944   7.077   5.170 -0.0353 -1.3038  0.6347
 7962SOL     OW25305   2.505   3.743   5.779 -0.3876  0.2884 -0.3266
 7962SOL    HW125306   2.518   3.695   5.697 -0.2021  1.2595 -0.8789
 7962SOL    HW225307   2.575   3.713   5.837 -2.1388 -2.5539  0.5499
 7963SOL     OW25308   5.312   2.202   6.010  0.1760 -0.0686  0.8642
 7963SOL    HW125309   5.378   2.149   5.966 -0.1353 -2.2081  2.8095
 7963SOL    HW225310   5.228   2.168   5.977 -0.0136 -0.1629  1.4341
 7964SOL     OW25311   3.715   2.397   7.749  0.4855  0.2210 -0.4156
 7964SOL    HW125312   3.785   2.442   7.796  1.0906 -0.3392 -0.7659
 7964SOL    HW225313   3.705   2.446   7.668 -0.8359  1.4331  0.4315
 7965SOL     OW25314   1.051   1.454   0.685 -0.0101  0.4109  0.0886
 7965SOL    HW125315   0.995   1.502   0.745 -1.1333 -0.4152 -0.2698
 7965SOL    HW225316   1.112   1.406   0.741 -1.4323 -0.8287  0.6281
 7966SOL     OW25317   3.430   3.368   1.729  0.2149  0.4857 -0.3297
 7966SOL    HW125318   3.434   3.462   1.746  1.8776  0.6145 -1.2126
 7966SOL    HW225319   3.404   3.329   1.812 -0.3293  1.6991  0.0888
 7967SOL     OW25320   8.013   0.505   2.559  0.3816  0.1847 -0.0867
 7967SOL    HW125321   8.034   0.597   2.546  0.4664  0.2914  0.7390
 7967SOL    HW225322   8.023   0.491   2.654 -0.7035 -0.3964 -0.0348
 7968SOL     OW25323   2.022   4.523   6.349 -0.5889  0.0479  0.1474
 7968SOL    HW125324   2.049   4.479   6.429 -0.7261 -1.7294 -0.7362
 7968SOL    HW225325   1.951   4.581   6.376  0.2130  0.4519  1.5026
 7969SOL     OW25326   6.922   0.627   2.684 -0.3891 -0.6824 -0.0638
 7969SOL    HW125327   6.947   0.632   2.776 -1.9383 -0.9741  0.4021
 7969SOL    HW225328   7.004   0.635   2.636  0.2058  2.5372  1.2243
 7970SOL     OW25329   5.637   4.602   3.766 -0.2098  0.0449  0.3354
 7970SOL    HW125330   5.637   4.634   3.676 -1.8850 -0.7330  0.0081
 7970SOL    HW225331   5.712   4.543   3.771 -0.6744 -0.6865 -0.8702
 7971SOL     OW25332   7.025   0.492   6.357  0.0501 -0.6823 -0.4964
 7971SOL    HW125333   7.046   0.520   6.445 -1.7940 -2.2806  0.5525
 7971SOL    HW225334   7.101   0.442   6.328  0.1938 -1.2066  0.7277
 7972SOL     OW25335   2.921   7.942   3.649  0.1687 -0.2025 -0.4078
 7972SOL    HW125336   2.975   7.970   3.723  1.8213 -1.0124 -1.2697
 7972SOL    HW225337   2.875   7.864   3.681  1.5330 -1.0613 -0.4844
 7973SOL     OW25338   1.163   0.491   1.316 -0.0022 -0.5510  0.3726
 7973SOL    HW125339   1.130   0.403   1.303  1.7067 -1.4044  1.4717
 7973SOL    HW225340   1.093   0.536   1.365 -0.3065 -1.7315  1.0538
 7974SOL     OW25341   7.669   7.928   1.273 -0.5895 -0.1947  0.4913
 7974SOL    HW125342   7.746   7.871   1.270  0.6185  1.1121  3.0656
 7974SOL    HW225343   7.613   7.890   1.340 -1.3268 -0.1168 -0.0669
 7975SOL     OW25344   5.327   3.657   2.476 -0.2475 -0.4494 -0.4239
 7975SOL    HW125345   5.247   3.682   2.523  0.9128  1.1600  0.8052
 7975SOL    HW225346   5.298   3.639   2.386 -1.8724  0.8179 -0.1876
 7976SOL     OW25347   2.444   3.027   5.027 -0.7381  0.2142  0.2927
 7976SOL    HW125348   2.364   3.017   4.976 -0.8448  0.4207  0.4175
 7976SOL    HW225349   2.501   3.080   4.972 -1.1713  1.1567  0.7347
 7977SOL     OW25350   4.976   6.596   1.414 -0.5186  0.7404 -0.7884
 7977SOL    HW125351   4.984   6.683   1.376 -0.6936  0.9173 -0.4250
 7977SOL    HW225352   5.055   6.585   1.466 -0.2289  0.4567 -1.2743
 7978SOL     OW25353   1.405   1.149   1.811 -0.5761  0.4332  0.2860
 7978SOL    HW125354   1.500   1.153   1.803 -0.5965  0.5982  0.1249
 7978SOL    HW225355   1.389   1.165   1.904 -0.3327 -1.7680  0.7603
 7979SOL     OW25356   1.268   5.355   5.975  0.2023 -0.3265  0.1848
 7979SOL    HW125357   1.328   5.348   5.901  0.3519  0.7753  0.1892
 7979SOL    HW225358   1.191   5.305   5.948  0.2162  0.1383 -0.7615
 7980SOL     OW25359   6.302   1.288   1.579 -0.5249 -0.5157  0.3299
 7980SOL    HW125360   6.351   1.212   1.611  0.8617  0.4474  0.5695
 7980SOL    HW225361   6.253   1.255   1.504  0.8609 -1.4411 -0.2189
 7981SOL     OW25362   2.569   2.410   1.705 -0.5607  0.2110 -0.4075
 7981SOL    HW125363   2.582   2.490   1.755 -1.9115  0.8631 -1.0500
 7981SOL    HW225364   2.651   2.398   1.657 -0.1331  0.8717  0.1408
 7982SOL     OW25365   5.196   1.421   7.024  0.5057 -0.0729 -0.3739
 7982SOL    HW125366   5.168   1.344   7.073 -2.9405  0.0018 -1.9395
 7982SOL    HW225367   5.173   1.495   7.080 -0.8717 -0.0823 -0.8862
 7983SOL     OW25368   6.112   5.334   5.416  0.2469  0.1981  0.0465
 7983SOL    HW125369   6.142   5.405   5.473  1.0385  0.2163 -0.3818
 7983SOL    HW225370   6.135   5.254   5.463  0.7156  0.2148 -0.1497
 7984SOL     OW25371   2.766   1.581   5.824  0.0147  0.3628  0.1789
 7984SOL    HW125372   2.799   1.561   5.736 -0.3423 -2.2913  0.5698
 7984SOL    HW225373   2.844   1.582   5.879  0.1959  1.6306 -0.0819
 7985SOL     OW25374   4.070   3.192   6.447 -0.3211 -0.6035 -0.0200
 7985SOL    HW125375   4.021   3.152   6.519 -1.1796 -1.0822 -0.8402
 7985SOL    HW225376   4.003   3.236   6.395  0.7085  3.3425  1.6309
 7986SOL     OW25377   7.142   5.304   3.565  0.4476 -0.2500 -0.2394
 7986SOL    HW125378   7.104   5.313   3.653  1.7765 -0.3805  0.3779
 7986SOL    HW225379   7.236   5.296   3.581  0.6589 -0.8132 -1.6568
 7987SOL     OW25380   7.834   6.801   2.028  0.1010 -0.2731  0.3672
 7987SOL    HW125381   7.929   6.812   2.035  0.2417 -0.7389 -0.6409
 7987SOL    HW225382   7.816   6.811   1.935 -0.5767 -2.2568  0.2557
 7988SOL     OW25383   3.230   7.728   3.557 -0.0833  0.0813 -0.4170
 7988SOL    HW125384   3.156   7.730   3.617  0.9894  0.1083  0.9535
 7988SOL    HW225385   3.298   7.778   3.601  0.8683 -0.2114 -1.5008
 7989SOL     OW25386   2.190   6.359   3.636 -0.2760 -0.0800  0.0304
 7989SOL    HW125387   2.193   6.273   3.678 -0.0482 -0.2976 -0.4231
 7989SOL    HW225388   2.119   6.352   3.572 -0.6603  0.2674  0.4122
 7990SOL     OW25389   7.671   5.726   3.579 -0.6373 -0.5355 -0.9123
 7990SOL    HW125390   7.599   5.770   3.623  0.1940 -0.2342  0.1863
 7990SOL    HW225391   7.643   5.721   3.487 -1.2597  1.2486 -0.8684
 7991SOL     OW25392   4.112   7.868   1.512 -0.0849 -0.3483  0.4588
 7991SOL    HW125393   4.117   7.773   1.500 -2.2623 -0.3263 -1.1772
 7991SOL    HW225394   4.030   7.883   1.559  1.3037  0.6564  2.7462
 7992SOL     OW25395   5.346   5.633   0.126  0.0031 -0.8836  0.2587
 7992SOL    HW125396   5.254   5.647   0.150  0.0384 -1.1388  0.5440
 7992SOL    HW225397   5.360   5.539   0.136  0.6493 -0.6700  1.4898
 7993SOL     OW25398   0.151   0.626   4.245 -0.5520 -0.0377 -0.9827
 7993SOL    HW125399   0.089   0.555   4.262 -1.6118  1.2991  1.1445
 7993SOL    HW225400   0.196   0.640   4.328  0.7221  0.7924 -1.7778
 7994SOL     OW25401   4.861   2.756   5.517  0.2138  0.1195 -0.0014
 7994SOL    HW125402   4.791   2.701   5.552  0.2000  0.2871  0.2401
 7994SOL    HW225403   4.941   2.706   5.531  0.1813  0.0823  0.0493
 7995SOL     OW25404   2.455   1.685   1.541  0.1539  0.1370  0.1771
 7995SOL    HW125405   2.496   1.696   1.627 -1.6540 -2.0168  1.4095
 7995SOL    HW225406   2.499   1.609   1.504  0.5986  0.7762 -0.6326
 7996SOL     OW25407   2.728   1.110   3.612  0.0251 -0.1645  0.3009
 7996SOL    HW125408   2.796   1.043   3.617  1.0037  0.7109 -0.7789
 7996SOL    HW225409   2.654   1.066   3.571  1.0368 -0.3356 -1.4193
 7997SOL     OW25410   7.264   4.862   7.146 -0.2872  0.0032 -0.6843
 7997SOL    HW125411   7.260   4.826   7.235 -0.4824  1.6287 -0.0108
 7997SOL    HW225412   7.358   4.864   7.126 -0.1181  1.1155  0.1379
 7998SOL     OW25413   7.512   1.560   7.343 -0.3510  0.0516  0.3180
 7998SOL    HW125414   7.466   1.597   7.418  0.1211 -1.6080  1.4769
 7998SOL    HW225415   7.599   1.599   7.346 -0.5833  0.5885  0.1527
 7999SOL     OW25416   3.356   3.565   2.237  0.5823  0.0534 -0.3034
 7999SOL    HW125417   3.302   3.492   2.266 -0.7074  1.6199  1.6132
 7999SOL    HW225418   3.433   3.562   2.294  0.7131 -0.0152 -0.4819
 8000SOL     OW25419   7.010   7.170   5.850 -0.4637  0.0299 -0.1588
 8000SOL    HW125420   6.934   7.116   5.873 -0.8381  0.7007  0.2056
 8000SOL    HW225421   6.987   7.258   5.880  0.7892  0.0927  0.6885
 8001SOL     OW25422   5.713   4.985   0.051  0.1427  0.6717  0.2777
 8001SOL    HW125423   5.796   4.939   0.063 -0.3064  0.0501  1.1217
 8001SOL    HW225424   5.731   5.050  -0.016  1.5864  1.2271  1.1681
 8002SOL     OW25425   6.602   1.457   6.432 -0.4282  0.3354  0.5647
 8002SOL    HW125426   6.603   1.463   6.337  1.0691 -1.9772  0.3516
 8002SOL    HW225427   6.584   1.365   6.451 -0.1260  0.6118  2.4978
 8003SOL     OW25428   1.266   0.964   5.270 -0.5825 -0.3423  0.4578
 8003SOL    HW125429   1.279   0.997   5.359 -0.8250 -0.7422  0.6411
 8003SOL    HW225430   1.207   0.890   5.279 -0.0878 -0.8008  0.0381
 8004SOL     OW25431   0.334   5.879   1.500  0.5279  0.2280  0.2621
 8004SOL    HW125432   0.269   5.927   1.449  1.0766  0.5865 -0.1048
 8004SOL    HW225433   0.309   5.895   1.591 -1.2920 -1.5401  0.1513
 8005SOL     OW25434   7.758   4.642   0.579  0.1999 -0.3235 -0.1922
 8005SOL    HW125435   7.750   4.655   0.484  0.9326 -1.2722 -0.3947
 8005SOL    HW225436   7.840   4.685   0.602 -0.4786  0.7943  0.1995
 8006SOL     OW25437   7.994   5.843   4.135  0.0553  0.3068 -0.5861
 8006SOL    HW125438   7.991   5.934   4.106 -0.2885 -0.5654 -3.5891
 8006SOL    HW225439   8.072   5.808   4.094 -1.1383 -1.3459 -1.5484
 8007SOL     OW25440   5.822   5.561   7.041 -0.3826 -0.8610  0.1527
 8007SOL    HW125441   5.736   5.544   7.080 -1.5658  3.3262 -0.1207
 8007SOL    HW225442   5.801   5.600   6.956  1.7916  0.2627  0.0833
 8008SOL     OW25443   0.859   4.355   0.092 -0.5121 -0.2742 -0.0052
 8008SOL    HW125444   0.928   4.367   0.158 -0.3555  0.7909 -0.3461
 8008SOL    HW225445   0.779   4.386   0.136 -0.5985 -0.5721  0.0485
 8009SOL     OW25446   6.744   5.170   1.519 -0.2254  0.2277  0.0549
 8009SOL    HW125447   6.656   5.142   1.493 -1.0446  0.6676  2.1648
 8009SOL    HW225448   6.790   5.088   1.537 -0.5748  0.0252  0.0402
 8010SOL     OW25449   3.342   4.294   1.935  0.5769  0.2501  0.1934
 8010SOL    HW125450   3.254   4.276   1.901  0.2959 -0.2332  1.1526
 8010SOL    HW225451   3.378   4.360   1.875 -0.2597  0.1119 -0.4761
 8011SOL     OW25452   6.537   0.431   0.362 -0.2162  0.0459  0.2593
 8011SOL    HW125453   6.539   0.416   0.456  0.9643 -0.1727  0.2104
 8011SOL    HW225454   6.547   0.344   0.324  0.5891  0.2648 -0.0535
 8012SOL     OW25455   5.912   6.437   4.554 -0.2415  0.0834 -0.2045
 8012SOL    HW125456   5.987   6.471   4.604  0.6190 -0.2774 -1.2018
 8012SOL    HW225457   5.868   6.377   4.614  0.4075  0.1285  0.3314
 8013SOL     OW25458   1.987   6.118   2.551 -0.2940  0.3892  0.1404
 8013SOL    HW125459   1.998   6.206   2.514 -2.6304  0.8316  0.3470
 8013SOL    HW225460   2.054   6.066   2.508  0.4716  2.0361 -0.7795
 8014SOL     OW25461   0.831   5.827   4.306  0.4109  0.0928 -0.4503
 8014SOL    HW125462   0.885   5.879   4.365 -0.3174  1.2198 -0.7427
 8014SOL    HW225463   0.841   5.869   4.220  3.6309 -3.0911 -1.8926
 8015SOL     OW25464   5.148   7.518   6.608 -0.9052 -1.2125 -0.8108
 8015SOL    HW125465   5.174   7.596   6.657 -2.0669  0.2554 -2.4316
 8015SOL    HW225466   5.074   7.482   6.658  2.5876 -4.3374  2.7639
 8016SOL     OW25467   2.803   1.950   1.757  0.5364 -0.0810  0.8559
 8016SOL    HW125468   2.841   2.038   1.749 -0.0568  0.1624  0.6304
 8016SOL    HW225469   2.838   1.916   1.839  2.3245 -0.4135 -0.0047
 8017SOL     OW25470   6.378   1.583   1.164  0.0655 -0.1002 -0.2450
 8017SOL    HW125471   6.421   1.593   1.079  0.7013  4.5445  0.3409
 8017SOL    HW225472   6.425   1.510   1.206  1.9107 -0.4431 -2.6517
 8018SOL     OW25473   4.957   2.703   3.977 -0.6618 -0.1350 -0.3409
 8018SOL    HW125474   5.014   2.638   3.936 -0.2336 -0.2835  0.4581
 8018SOL    HW225475   4.976   2.784   3.930 -2.1238 -0.8011 -2.1965
 8019SOL     OW25476   1.008   0.276   1.782 -0.0475 -0.0450 -0.2599
 8019SOL    HW125477   0.980   0.192   1.747 -0.2333  0.9709 -2.7627
 8019SOL    HW225478   1.103   0.268   1.792 -0.2511 -1.0626  1.1926
 8020SOL     OW25479   8.024   0.802   7.018  0.0701 -0.2079 -0.2542
 8020SOL    HW125480   8.089   0.872   7.012 -0.4344  0.4124  1.1282
 8020SOL    HW225481   7.971   0.812   6.939 -0.3437  1.3574  0.1802
 8021SOL     OW25482   6.390   5.291   2.591 -0.4853  0.0200  0.0991
 8021SOL    HW125483   6.443   5.331   2.660  1.1684  0.4760 -1.3451
 8021SOL    HW225484   6.308   5.266   2.634 -0.4352  2.3460  1.7078
 8022SOL     OW25485   2.180   3.820   3.252  0.2099 -0.0273 -0.6084
 8022SOL    HW125486   2.085   3.829   3.263  0.0549 -1.1271 -0.8969
 8022SOL    HW225487   2.196   3.726   3.257  1.5864  0.2641  1.5562
 8023SOL     OW25488   3.917   0.155   2.708 -0.0115  0.0509 -0.0938
 8023SOL    HW125489   3.821   0.153   2.708 -0.0538  0.0763  1.7840
 8023SOL    HW225490   3.942   0.063   2.712  0.1053 -0.0178 -1.6540
 8024SOL     OW25491   6.665   3.229   3.637 -0.3596 -0.8615  0.2393
 8024SOL    HW125492   6.644   3.182   3.718 -0.1016  0.1993  0.9578
 8024SOL    HW225493   6.680   3.320   3.666  1.8568 -0.8678 -0.6680
 8025SOL     OW25494   5.130   7.263   3.162  0.1915 -0.6559 -0.0172
 8025SOL    HW125495   5.149   7.233   3.073  0.4031  0.8950 -0.5222
 8025SOL    HW225496   5.082   7.344   3.151  0.9495  0.0115  1.2864
 8026SOL     OW25497   2.456   4.327   7.588  0.4921  0.9410 -0.1490
 8026SOL    HW125498   2.492   4.241   7.565  0.9019  1.8376 -3.3814
 8026SOL    HW225499   2.375   4.333   7.538  0.0042  2.1188  0.7369
 8027SOL     OW25500   6.269   1.159   0.379  0.4685 -0.5543  0.0116
 8027SOL    HW125501   6.273   1.190   0.469  0.8852 -0.7372  0.0609
 8027SOL    HW225502   6.326   1.082   0.378  0.1467 -0.7900 -0.3133
 8028SOL     OW25503   0.464   3.737   1.176  0.0940 -0.4662  0.6520
 8028SOL    HW125504   0.516   3.667   1.137  0.1340 -1.0301  1.6664
 8028SOL    HW225505   0.445   3.797   1.104  0.9183 -1.0012 -0.0279
 8029SOL     OW25506   0.080   6.859   0.053 -0.1998  0.0300  0.5378
 8029SOL    HW125507   0.111   6.779   0.095  1.1474  0.5233  0.5314
 8029SOL    HW225508  -0.010   6.840   0.029 -0.2905 -1.0471  1.6459
 8030SOL     OW25509   6.304   2.735   4.199 -0.8591 -0.3097 -0.3491
 8030SOL    HW125510   6.238   2.718   4.267 -2.2795  0.1297 -1.5718
 8030SOL    HW225511   6.255   2.772   4.126  0.7849  0.1897 -1.2575
 8031SOL     OW25512   4.877   1.019   3.864  0.0429 -0.1882  0.1513
 8031SOL    HW125513   4.821   0.980   3.931 -0.0686 -0.4869 -0.1101
 8031SOL    HW225514   4.925   0.944   3.827  0.2263 -0.0039  0.0132
 8032SOL     OW25515   4.815   3.247   6.008 -0.1388 -0.1835  0.5980
 8032SOL    HW125516   4.812   3.233   5.914  1.4076 -2.2157  0.7685
 8032SOL    HW225517   4.785   3.337   6.021 -2.1041 -0.4277 -1.6409
 8033SOL     OW25518   3.387   7.934   2.173  0.6109  0.1186 -0.2740
 8033SOL    HW125519   3.358   7.901   2.258  0.7089  2.9612  0.9888
 8033SOL    HW225520   3.388   7.857   2.116 -1.5467 -1.5224  1.7087
 8034SOL     OW25521   0.796   6.673   1.673 -0.9876 -0.2608  0.7052
 8034SOL    HW125522   0.793   6.666   1.578 -0.4781 -1.9105  0.7807
 8034SOL    HW225523   0.711   6.640   1.702 -0.3008 -2.0087  0.8779
 8035SOL     OW25524   5.395   0.767   5.629  0.4049 -0.9123  0.2097
 8035SOL    HW125525   5.382   0.726   5.544 -2.4401 -1.0555  0.6360
 8035SOL    HW225526   5.452   0.843   5.611 -0.6203 -0.5921 -1.9325
 8036SOL     OW25527   3.573   1.640   5.075 -0.1840  0.6943 -0.2509
 8036SOL    HW125528   3.631   1.594   5.136 -1.1393 -2.3718 -1.4646
 8036SOL    HW225529   3.494   1.659   5.126 -0.3777 -0.4826 -0.0828
 8037SOL     OW25530   2.131   0.387   4.056  0.2029 -0.1935 -0.6570
 8037SOL    HW125531   2.047   0.412   4.017 -0.7032 -0.8139  0.8163
 8037SOL    HW225532   2.130   0.428   4.142  1.4000 -0.2606 -0.6027
 8038SOL     OW25533   3.115   2.883   6.623  0.2867 -0.0503 -0.4430
 8038SOL    HW125534   3.109   2.941   6.546  1.0284  2.1914  1.1022
 8038SOL    HW225535   3.031   2.895   6.668 -0.0614 -1.2035 -0.7420
 8039SOL     OW25536   2.836   3.461   2.256 -0.2227  0.3184  0.1317
 8039SOL    HW125537   2.858   3.368   2.253  0.9245  0.5960 -0.7562
 8039SOL    HW225538   2.860   3.489   2.345  0.4231  0.0017  0.0546
 8040SOL     OW25539   6.432   6.305   1.027 -0.2112 -0.1079  0.3072
 8040SOL    HW125540   6.506   6.359   1.053 -0.9153  0.4882  1.1183
 8040SOL    HW225541   6.406   6.339   0.941  0.4341 -0.3143  0.0233
 8041SOL     OW25542   6.289   4.915   6.740 -0.1994 -0.6973 -0.2540
 8041SOL    HW125543   6.352   4.930   6.670 -0.4911 -1.0142 -0.5880
 8041SOL    HW225544   6.265   4.822   6.731  2.1705 -1.6888  2.2179
 8042SOL     OW25545   4.719   0.144   3.213  0.2668  0.1282  0.0481
 8042SOL    HW125546   4.680   0.199   3.281  1.0403  1.0839 -0.2501
 8042SOL    HW225547   4.656   0.146   3.141 -0.2572 -0.3597  0.4838
 8043SOL     OW25548   5.843   5.206   7.495  0.0456 -0.2871 -0.2330
 8043SOL    HW125549   5.749   5.219   7.480 -0.5023 -3.6272 -0.5521
 8043SOL    HW225550   5.847   5.168   7.583  0.7421 -2.7217 -1.2522
 8044SOL     OW25551   3.016   7.460   6.797  0.6807 -0.8327  0.0280
 8044SOL    HW125552   3.069   7.535   6.769 -1.0077  0.4946  0.2241
 8044SOL    HW225553   3.005   7.407   6.717  1.7644 -0.8008 -0.1473
 8045SOL     OW25554   6.072   5.797   7.744  0.0653  0.6346  0.5443
 8045SOL    HW125555   6.054   5.800   7.650  1.8190  3.4190  0.1675
 8045SOL    HW225556   5.985   5.797   7.785 -0.7301  0.0280 -1.0737
 8046SOL     OW25557   3.556   4.825   7.595  0.1518  0.3901 -0.4385
 8046SOL    HW125558   3.472   4.871   7.592 -0.8676 -1.3266  0.4128
 8046SOL    HW225559   3.613   4.875   7.537 -1.1627  2.1570 -0.2846
 8047SOL     OW25560   3.465   5.130   1.421  0.2447  0.2987 -0.1398
 8047SOL    HW125561   3.536   5.175   1.467 -0.7857  1.2910  0.5199
 8047SOL    HW225562   3.461   5.173   1.335  1.2141 -0.5807 -0.6497
 8048SOL     OW25563   1.454   2.105   4.168 -0.3182  0.1379 -0.2295
 8048SOL    HW125564   1.514   2.031   4.182  0.5483  0.8040 -0.3518
 8048SOL    HW225565   1.475   2.167   4.237 -0.3932  0.6731 -0.6773
 8049SOL     OW25566   6.082   2.356   7.479 -0.5052 -0.1281 -0.3642
 8049SOL    HW125567   6.057   2.282   7.423 -0.2020 -0.3407 -0.2220
 8049SOL    HW225568   6.163   2.390   7.439  1.0772 -1.7692  1.2676
 8050SOL     OW25569   3.821   2.911   5.434  0.8467  0.2177 -0.5310
 8050SOL    HW125570   3.837   2.837   5.375  0.9759  0.8665 -1.3343
 8050SOL    HW225571   3.791   2.871   5.516 -0.8985 -0.6588 -1.5277
 8051SOL     OW25572   2.711   1.517   7.662  0.4534  0.5509  0.6159
 8051SOL    HW125573   2.658   1.470   7.727 -1.8274 -0.3574 -1.7257
 8051SOL    HW225574   2.672   1.604   7.659 -0.0859  0.2866 -0.1989
 8052SOL     OW25575   6.695   1.861   6.654  0.2228  0.8330 -0.3018
 8052SOL    HW125576   6.749   1.789   6.622  0.4050  0.7505  0.1798
 8052SOL    HW225577   6.758   1.930   6.676  0.0507  1.1385 -0.7568
 8053SOL     OW25578   6.835   6.728   5.370  0.0642  0.3929  1.1344
 8053SOL    HW125579   6.906   6.772   5.321  0.8587 -0.4295  1.5210
 8053SOL    HW225580   6.795   6.798   5.422  0.3781  0.9329  0.6628
 8054SOL     OW25581   5.297   7.235   0.955  0.1999 -0.2334 -0.3142
 8054SOL    HW125582   5.209   7.199   0.967 -0.7418  1.8288 -0.6619
 8054SOL    HW225583   5.353   7.179   1.010 -1.6052 -0.4662  1.4064
 8055SOL     OW25584   1.084   5.539   3.110  0.1202 -0.3293  0.3488
 8055SOL    HW125585   1.017   5.550   3.043 -1.7991 -0.6938  2.0784
 8055SOL    HW225586   1.138   5.466   3.080  0.4769  0.6864 -1.6216
 8056SOL     OW25587   6.069   3.221   0.007 -0.0310 -0.2570  0.7148
 8056SOL    HW125588   6.115   3.291  -0.040 -2.9398  0.8173 -0.8025
 8056SOL    HW225589   6.074   3.248   0.099 -0.9908  2.0381  0.1857
 8057SOL     OW25590   0.746   1.082   1.231 -0.2068  0.1259 -0.5241
 8057SOL    HW125591   0.822   1.094   1.173 -0.5773  1.5534 -0.7516
 8057SOL    HW225592   0.718   1.171   1.252 -0.8134 -0.3747  0.9055
 8058SOL     OW25593   4.501   1.361   4.995  0.1201  0.3719 -0.2397
 8058SOL    HW125594   4.441   1.342   4.923  1.2271  0.3609 -1.1916
 8058SOL    HW225595   4.575   1.405   4.953  0.6689  0.6061  0.9385
 8059SOL     OW25596   7.344   0.510   4.802 -0.9451  0.4440  0.2949
 8059SOL    HW125597   7.250   0.526   4.814 -1.0559  0.7715 -0.8570
 8059SOL    HW225598   7.384   0.596   4.814 -0.8273  0.3742  0.4024
 8060SOL     OW25599   1.852   0.599   1.272  0.4055  0.0609 -0.8529
 8060SOL    HW125600   1.908   0.674   1.294 -0.1202  0.4720 -0.8782
 8060SOL    HW225601   1.798   0.631   1.200  0.3095 -0.4106 -0.9895
 8061SOL     OW25602   6.911   6.748   2.027  0.2250  0.1172  0.0917
 8061SOL    HW125603   6.854   6.811   1.984  1.1037  0.3216 -0.8221
 8061SOL    HW225604   6.862   6.666   2.025  0.4141  0.0065 -1.7487
 8062SOL     OW25605   1.216   5.418   2.056  0.1384 -0.7465  0.1421
 8062SOL    HW125606   1.199   5.401   2.149 -0.6657 -2.8525 -0.3284
 8062SOL    HW225607   1.285   5.485   2.056 -0.5122  0.0183  2.2267
 8063SOL     OW25608   6.655   6.828   6.335 -0.6658  0.1164 -0.3286
 8063SOL    HW125609   6.612   6.912   6.350 -2.3548 -0.4865 -1.4204
 8063SOL    HW225610   6.694   6.805   6.419 -0.9199  1.5798  0.2166
 8064SOL     OW25611   2.258   3.319   0.132 -0.1760 -0.3947  0.2649
 8064SOL    HW125612   2.246   3.226   0.113  0.0772 -0.2747 -0.5189
 8064SOL    HW225613   2.307   3.321   0.214  1.2020 -0.9789 -0.5287
 8065SOL     OW25614   0.914   5.582   1.314  0.8813  0.0337 -0.0664
 8065SOL    HW125615   1.002   5.598   1.280  0.3594  1.3630 -0.8956
 8065SOL    HW225616   0.897   5.655   1.374  0.1497  0.1061 -0.3419
 8066SOL     OW25617   3.491   2.376   0.377  0.1328 -0.2825 -0.0297
 8066SOL    HW125618   3.464   2.384   0.286 -0.3998  0.2957  0.1710
 8066SOL    HW225619   3.560   2.442   0.388 -1.2925  1.1838  0.5213
 8067SOL     OW25620   3.296   2.827   5.313 -0.3873 -0.1191  0.1473
 8067SOL    HW125621   3.330   2.746   5.352 -1.2665 -1.4172 -1.6582
 8067SOL    HW225622   3.207   2.835   5.348 -0.0697  0.4857  0.8597
 8068SOL     OW25623   5.079   7.371   2.851  0.2263  0.2853  0.7864
 8068SOL    HW125624   5.172   7.353   2.834  0.0104  1.0048 -1.4311
 8068SOL    HW225625   5.065   7.459   2.818 -1.2214  0.2846  1.3217
 8069SOL     OW25626   0.758   0.312   2.102 -0.7798  0.1408 -0.2956
 8069SOL    HW125627   0.754   0.221   2.075 -0.7428  0.6579 -2.1972
 8069SOL    HW225628   0.676   0.327   2.149 -0.4647 -1.0266  0.6603
 8070SOL     OW25629   3.337   2.728   6.709 -0.5043 -0.0644 -0.3754
 8070SOL    HW125630   3.251   2.731   6.669 -0.7322  1.0904  0.1436
 8070SOL    HW225631   3.351   2.817   6.742  0.2794 -0.5892  0.7913
 8071SOL     OW25632   6.265   4.586   1.827 -0.3155  0.4430 -0.0239
 8071SOL    HW125633   6.344   4.532   1.829  2.1607  3.7544  0.6541
 8071SOL    HW225634   6.192   4.523   1.825  2.2637 -2.8082  0.3197
 8072SOL     OW25635   7.903   5.470   0.522  0.3340 -0.4677  0.0153
 8072SOL    HW125636   7.859   5.535   0.577 -1.1576 -1.4549  0.0307
 8072SOL    HW225637   7.843   5.396   0.519  1.8172 -1.6969 -0.3568
 8073SOL     OW25638   2.390   6.679   2.345  0.1082  0.5883 -0.2458
 8073SOL    HW125639   2.321   6.745   2.358  2.2439  2.5988  1.9403
 8073SOL    HW225640   2.464   6.728   2.311  1.4087 -0.9500  0.2508
 8074SOL     OW25641   5.757   3.032   5.214 -0.1810  0.4849  0.2776
 8074SOL    HW125642   5.691   2.971   5.181  0.2805 -0.2330  0.6596
 8074SOL    HW225643   5.707   3.109   5.241 -0.7522  0.3525 -0.3744
 8075SOL     OW25644   0.134   0.201   7.035 -0.3896 -0.0744 -0.0538
 8075SOL    HW125645   0.168   0.135   7.096  0.8063  0.5689 -0.0072
 8075SOL    HW225646   0.168   0.174   6.950  0.8107  0.9071  0.0813
 8076SOL     OW25647   6.609   0.230   0.908  0.0975 -0.4675 -0.2036
 8076SOL    HW125648   6.602   0.149   0.959  1.3651 -1.0096 -0.8333
 8076SOL    HW225649   6.527   0.276   0.923 -0.6115 -1.8400  0.2426
 8077SOL     OW25650   4.528   5.993   3.335 -0.4208 -0.2397 -0.2900
 8077SOL    HW125651   4.562   6.069   3.382  0.1141 -0.3438 -0.5039
 8077SOL    HW225652   4.453   6.026   3.286 -0.5574  0.0175  0.0904
 8078SOL     OW25653   4.938   2.728   7.129 -0.3287  0.0348  0.0552
 8078SOL    HW125654   4.926   2.792   7.199 -0.0850  0.4811 -0.3028
 8078SOL    HW225655   5.031   2.706   7.132 -0.3148  0.0652 -0.1368
 8079SOL     OW25656   4.825   6.883   7.019 -0.0398 -0.0578 -0.1730
 8079SOL    HW125657   4.834   6.977   7.006 -0.1803 -0.0720 -0.3790
 8079SOL    HW225658   4.800   6.874   7.111  0.7838  0.0525  0.0652
 8080SOL     OW25659   5.524   6.218   5.288  0.2421 -0.4849  0.0063
 8080SOL    HW125660   5.440   6.173   5.275  0.9440 -1.0199 -3.9384
 8080SOL    HW225661   5.573   6.200   5.209  3.2531  1.7520  1.1732
 8081SOL     OW25662   5.942   7.441   2.016  0.3079 -0.5954 -0.1778
 8081SOL    HW125663   5.885   7.415   1.944  1.5677  0.6175 -1.6787
 8081SOL    HW225664   5.889   7.501   2.068 -0.0428 -0.0032 -1.1829
 8082SOL     OW25665   4.927   7.797   5.247 -0.1014  0.1746 -0.5313
 8082SOL    HW125666   4.939   7.744   5.325  0.5899  0.3599 -0.5099
 8082SOL    HW225667   4.985   7.758   5.182 -2.1731 -1.2806 -1.6364
 8083SOL     OW25668   5.797   1.916   2.488  0.0019 -0.1136 -0.3734
 8083SOL    HW125669   5.863   1.935   2.421  0.3485  0.0309  0.0047
 8083SOL    HW225670   5.717   1.959   2.456 -0.0158 -0.5956 -1.0123
 8084SOL     OW25671   6.980   2.719   7.537 -0.3912  0.0312  0.2952
 8084SOL    HW125672   7.047   2.724   7.469 -1.1415  0.9819 -0.3933
 8084SOL    HW225673   7.026   2.684   7.613  0.1303 -2.6420 -1.1271
 8085SOL     OW25674   2.141   1.981   5.807 -0.1471 -0.3357  0.4853
 8085SOL    HW125675   2.166   1.889   5.801  1.4938 -0.0215  1.6517
 8085SOL    HW225676   2.082   1.995   5.733 -0.8586 -2.4315  0.5983
 8086SOL     OW25677   6.341   7.081   7.803 -0.4073  0.0440 -0.5673
 8086SOL    HW125678   6.253   7.080   7.766 -0.5309 -1.0326 -0.2735
 8086SOL    HW225679   6.375   6.993   7.787 -0.1861 -0.2139  1.1902
 8087SOL     OW25680   1.466   2.250   1.440 -0.0211  0.4196  0.3889
 8087SOL    HW125681   1.520   2.247   1.519 -0.7860  3.7164  1.1787
 8087SOL    HW225682   1.529   2.253   1.367  0.8325  1.4434  1.1397
 8088SOL     OW25683   0.260   4.190   6.866 -0.2146  0.1438 -0.4890
 8088SOL    HW125684   0.274   4.133   6.791  1.5750  0.1670 -0.2385
 8088SOL    HW225685   0.245   4.276   6.829 -0.0866  0.0176 -0.8375
 8089SOL     OW25686   0.698   1.670   4.185 -0.0261  0.3115 -0.3664
 8089SOL    HW125687   0.618   1.670   4.132  0.2352  1.4695 -0.7817
 8089SOL    HW225688   0.725   1.762   4.189  1.9333 -0.1657 -1.2377
 8090SOL     OW25689   1.918   7.754   1.618 -0.2354  0.2345 -0.0504
 8090SOL    HW125690   1.836   7.738   1.666 -0.3909 -1.1942 -0.7384
 8090SOL    HW225691   1.915   7.847   1.595 -2.2466 -0.0423 -1.0848
 8091SOL     OW25692   0.172   6.016   6.253 -0.3737  0.3790  0.0889
 8091SOL    HW125693   0.128   5.980   6.330 -0.9845  0.4188 -0.2341
 8091SOL    HW225694   0.105   6.014   6.184  0.0929  0.5657 -0.3768
 8092SOL     OW25695   0.321   1.202   5.138 -0.2364 -0.0209  0.2694
 8092SOL    HW125696   0.262   1.155   5.079  0.5008  0.2651 -0.7203
 8092SOL    HW225697   0.362   1.133   5.191 -2.7923 -0.1315  2.3506
 8093SOL     OW25698   4.801   3.000   5.760 -0.3421 -0.4327  0.3983
 8093SOL    HW125699   4.879   3.025   5.811  0.9161  0.0332 -1.6208
 8093SOL    HW225700   4.819   2.910   5.733  0.5207  0.3301 -1.7579
 8094SOL     OW25701   2.466   7.963   5.852 -0.0948  0.8064 -0.0512
 8094SOL    HW125702   2.539   7.931   5.906  0.0024  2.2090  0.6926
 8094SOL    HW225703   2.506   8.029   5.796 -0.4449  0.2203 -1.0173
 8095SOL     OW25704   7.837   1.869   0.381 -0.0489  0.4639  0.6234
 8095SOL    HW125705   7.839   1.871   0.477 -1.0355  0.1681  0.6584
 8095SOL    HW225706   7.786   1.792   0.360 -0.5975  1.0264 -0.1341
 8096SOL     OW25707   5.551   7.406   7.119 -0.2555 -0.4194 -0.0626
 8096SOL    HW125708   5.487   7.347   7.159  2.4141 -1.9953  2.2280
 8096SOL    HW225709   5.618   7.349   7.083  1.2137  1.1719  0.0140
 8097SOL     OW25710   5.585   0.269   4.346  0.2079 -0.1900  0.1084
 8097SOL    HW125711   5.618   0.343   4.396  2.2931 -0.4639 -0.7285
 8097SOL    HW225712   5.628   0.193   4.386 -0.1993 -0.7039 -0.4145
 8098SOL     OW25713   7.922   2.453   1.192 -0.3884 -0.1660 -0.2604
 8098SOL    HW125714   7.958   2.541   1.200  0.5892 -0.4924 -0.8557
 8098SOL    HW225715   7.923   2.419   1.282 -0.7037  0.3989 -0.0388
 8099SOL     OW25716   5.890   0.250   2.000 -0.4411  1.0168  0.4646
 8099SOL    HW125717   5.847   0.330   1.970 -0.1828 -0.0153 -3.0247
 8099SOL    HW225718   5.829   0.180   1.977 -0.2435  0.0458  2.6252
 8100SOL     OW25719   0.885   6.063   7.557  0.4075  0.2675  0.4369
 8100SOL    HW125720   0.933   6.019   7.627 -1.2093  0.7849  1.9463
 8100SOL    HW225721   0.855   5.993   7.499  2.9224 -0.0676 -0.5802
 8101SOL     OW25722   6.569   0.586   5.283  0.0128  0.2784 -0.3305
 8101SOL    HW125723   6.477   0.580   5.258 -0.2209  1.9331  0.0245
 8101SOL    HW225724   6.573   0.546   5.370  0.4464 -3.5768 -1.9255
 8102SOL     OW25725   5.358   2.341   0.458  0.3618 -0.0904  0.2672
 8102SOL    HW125726   5.269   2.343   0.492  0.1502 -1.0419 -0.1936
 8102SOL    HW225727   5.348   2.325   0.364  0.9850  0.9403  0.0008
 8103SOL     OW25728   1.108   5.932   5.119  0.0025 -0.1401 -0.0627
 8103SOL    HW125729   1.073   6.021   5.117 -0.3393 -0.2299  1.1093
 8103SOL    HW225730   1.186   5.939   5.175  0.9090 -0.2811 -1.2527
 8104SOL     OW25731   7.290   2.239   7.982 -0.2772  0.4795  0.2806
 8104SOL    HW125732   7.232   2.178   8.026 -1.1285  0.9453 -0.1630
 8104SOL    HW225733   7.300   2.204   7.893 -0.1324  0.5687  0.2600
 8105SOL     OW25734   5.375   6.010   1.113  0.3699 -0.3610 -0.8269
 8105SOL    HW125735   5.301   5.951   1.123  1.2129 -1.4985 -1.0499
 8105SOL    HW225736   5.336   6.094   1.089 -0.8276 -0.9574 -1.0495
 8106SOL     OW25737   2.987   3.209   3.738 -0.4889 -0.2210 -0.7724
 8106SOL    HW125738   3.063   3.263   3.763 -2.0611  1.5938  0.3572
 8106SOL    HW225739   3.006   3.123   3.775  0.9542  0.2262 -0.3932
 8107SOL     OW25740   2.826   3.087   7.561 -0.4161 -0.0608  0.3097
 8107SOL    HW125741   2.820   3.052   7.650 -2.8327 -1.4993 -0.3562
 8107SOL    HW225742   2.838   3.010   7.505  2.3429  0.9051 -0.6053
 8108SOL     OW25743   1.673   2.781   6.001  0.5574 -0.2325  0.3195
 8108SOL    HW125744   1.673   2.685   5.997  0.9979 -0.2046 -0.5430
 8108SOL    HW225745   1.715   2.809   5.920  1.7582  0.6562  1.1905
 8109SOL     OW25746   4.212   3.430   4.067 -0.5888  0.1501  0.0203
 8109SOL    HW125747   4.118   3.429   4.050 -0.5608  0.6129 -0.1708
 8109SOL    HW225748   4.247   3.496   4.007  0.0168 -0.8007 -0.6947
 8110SOL     OW25749   3.966   6.112   1.388 -0.0718 -0.2139  0.1265
 8110SOL    HW125750   3.983   6.195   1.433 -0.4886 -0.4295  0.6851
 8110SOL    HW225751   3.983   6.045   1.454  1.2252 -0.6361 -0.6014
 8111SOL     OW25752   1.737   5.567   4.930  0.3704 -0.7761 -0.6204
 8111SOL    HW125753   1.661   5.606   4.886  1.3397  0.3068 -1.3813
 8111SOL    HW225754   1.702   5.535   5.013 -0.4974  2.0148  0.2215
 8112SOL     OW25755   3.556   1.013   3.948 -0.1490 -0.2997  0.1165
 8112SOL    HW125756   3.612   1.064   4.007  1.7819 -0.4900 -1.4570
 8112SOL    HW225757   3.599   0.928   3.942 -1.3639 -0.9226 -0.1346
 8113SOL     OW25758   0.125   5.238   0.912 -0.7708 -0.1792 -0.2027
 8113SOL    HW125759   0.034   5.208   0.917 -0.4515 -0.9540  2.1236
 8113SOL    HW225760   0.136   5.291   0.991  0.7626  0.0451 -0.5449
 8114SOL     OW25761   0.034   6.682   0.588  0.0113  0.1427  0.0017
 8114SOL    HW125762  -0.016   6.696   0.507  1.3713 -0.6137 -1.0129
 8114SOL    HW225763   0.065   6.770   0.611 -0.5249  0.3946 -0.1888
 8115SOL     OW25764   3.719   4.945   7.398  0.1488 -0.2903 -0.1433
 8115SOL    HW125765   3.680   4.921   7.314  1.4549  0.7838 -1.0971
 8115SOL    HW225766   3.749   5.035   7.386  0.6954 -0.2345  1.3690
 8116SOL     OW25767   3.408   3.417   7.028  0.5327 -0.1282  0.5363
 8116SOL    HW125768   3.368   3.344   7.074 -0.7957 -0.6734 -1.3802
 8116SOL    HW225769   3.336   3.461   6.984  1.7760 -0.1921 -1.7499
 8117SOL     OW25770   7.302   6.302   3.965  0.0735  0.4847  0.4134
 8117SOL    HW125771   7.367   6.296   4.035 -1.0540  0.5958  1.5168
 8117SOL    HW225772   7.294   6.213   3.931  1.5635  0.6584 -0.4990
 8118SOL     OW25773   0.776   3.650   7.405  0.2984  0.0936  0.2075
 8118SOL    HW125774   0.692   3.661   7.448  0.7680 -0.4525  1.2832
 8118SOL    HW225775   0.839   3.638   7.476  1.2480  0.2006 -0.5857
 8119SOL     OW25776   3.889   5.545   0.635 -0.6905  0.2100  0.0226
 8119SOL    HW125777   3.976   5.507   0.626  0.6366  1.7535  3.9830
 8119SOL    HW225778   3.830   5.470   0.634  1.0268 -1.2220  0.4136
 8120SOL     OW25779   1.425   6.571   6.264  0.1248 -0.3671 -0.0811
 8120SOL    HW125780   1.508   6.537   6.298 -0.6719 -2.9022 -0.4593
 8120SOL    HW225781   1.425   6.549   6.171 -0.2782  1.1290 -0.4642
 8121SOL     OW25782   1.147   0.420   6.528 -0.2764  0.0294 -0.3585
 8121SOL    HW125783   1.162   0.336   6.570  0.4013  0.3515  0.0743
 8121SOL    HW225784   1.229   0.468   6.541 -0.5488  0.6498 -0.8451
 8122SOL     OW25785   2.525   2.636   5.673  0.1826 -0.0360  0.2294
 8122SOL    HW125786   2.550   2.543   5.666  1.0179  0.2254 -0.4965
 8122SOL    HW225787   2.554   2.674   5.590 -0.8726  0.7224  0.1878
 8123SOL     OW25788   1.563   3.159   3.652  0.0137 -0.2251 -0.1328
 8123SOL    HW125789   1.549   3.136   3.744  0.1202  1.1306  0.2366
 8123SOL    HW225790   1.596   3.078   3.612  1.5485 -0.4025  1.3665
 8124SOL     OW25791   0.863   1.216   5.290  0.4392 -0.3300 -0.1868
 8124SOL    HW125792   0.894   1.250   5.206 -0.4034 -0.3962 -0.5347
 8124SOL    HW225793   0.928   1.247   5.353  1.0917 -0.2942 -0.8590
 8125SOL     OW25794   6.401   1.340   0.925  0.0909  0.0243  0.1277
 8125SOL    HW125795   6.368   1.274   0.987  0.9237  0.0144  0.5730
 8125SOL    HW225796   6.478   1.377   0.969  0.1256  0.6966 -0.4926
 8126SOL     OW25797   7.669   4.378   4.154 -0.0719 -0.2889  0.2502
 8126SOL    HW125798   7.657   4.308   4.090  0.9386  0.5133 -0.8388
 8126SOL    HW225799   7.701   4.452   4.104 -0.2178  0.6817  1.5378
 8127SOL     OW25800   5.884   0.530   3.957  0.0358 -0.1123 -0.0408
 8127SOL    HW125801   5.823   0.575   3.898 -0.0004 -0.6720 -0.4449
 8127SOL    HW225802   5.942   0.481   3.898  0.5418 -0.0104  0.3610
 8128SOL     OW25803   7.946   4.419   6.806 -0.3159 -0.2071  0.0970
 8128SOL    HW125804   7.911   4.331   6.822 -2.6240  0.3591 -1.2441
 8128SOL    HW225805   7.877   4.463   6.755  2.1063  1.3486 -2.0869
 8129SOL     OW25806   0.368   2.636   4.451 -0.3895  0.5786 -0.1683
 8129SOL    HW125807   0.301   2.687   4.404 -0.8785  0.0700 -0.0397
 8129SOL    HW225808   0.345   2.647   4.543 -0.9703 -0.4913 -0.1668
 8130SOL     OW25809   1.430   7.377   5.715  0.0304  0.2583  0.2623
 8130SOL    HW125810   1.376   7.365   5.637 -1.2572  1.1294  0.9779
 8130SOL    HW225811   1.483   7.454   5.696  0.4718 -0.1451 -0.1486
 8131SOL     OW25812   7.861   5.772   0.023 -1.1529 -0.2724  0.1208
 8131SOL    HW125813   7.876   5.704  -0.042 -0.0999  1.5416 -1.6622
 8131SOL    HW225814   7.941   5.825   0.021 -0.4966 -0.8540  3.9012
 8132SOL     OW25815   5.987   6.664   3.036  0.0723 -0.1362  0.5917
 8132SOL    HW125816   5.921   6.694   3.098 -0.2506 -0.3954  0.3735
 8132SOL    HW225817   6.018   6.743   2.993 -1.1454 -0.1568 -0.3541
 8133SOL     OW25818   3.870   4.330   1.324 -0.2225 -0.1240  0.0256
 8133SOL    HW125819   3.880   4.339   1.419  1.4557 -0.9686 -0.0459
 8133SOL    HW225820   3.795   4.386   1.303 -0.1235  0.7200  1.7288
 8134SOL     OW25821   4.487   7.804   0.834 -0.3345 -0.1406  0.3944
 8134SOL    HW125822   4.462   7.819   0.925 -1.0994 -2.6970  0.6971
 8134SOL    HW225823   4.581   7.816   0.833 -0.6381  3.0976  0.7356
 8135SOL     OW25824   3.137   3.722   2.281  0.7256 -0.0339  0.1772
 8135SOL    HW125825   3.222   3.700   2.242  0.9305  0.7602  0.1673
 8135SOL    HW225826   3.158   3.786   2.349  0.2883 -0.8431  1.1030
 8136SOL     OW25827   6.865   4.677   5.617  0.3317  0.4998  0.2073
 8136SOL    HW125828   6.802   4.606   5.608  0.0314  0.9392 -1.8399
 8136SOL    HW225829   6.815   4.749   5.656 -0.3773  0.7189 -1.0444
 8137SOL     OW25830   7.504   0.165   1.139  0.2289 -0.6316 -0.0656
 8137SOL    HW125831   7.537   0.254   1.143 -1.4051  0.1557 -2.2435
 8137SOL    HW225832   7.582   0.110   1.129  1.2008  0.5663  0.6801
 8138SOL     OW25833   5.303   6.742   7.100  0.5604  0.3926 -0.2769
 8138SOL    HW125834   5.371   6.700   7.047  1.1739  1.3575 -0.2781
 8138SOL    HW225835   5.336   6.737   7.189  0.6159  0.8332 -0.2732
 8139SOL     OW25836   3.279   4.417   2.562  0.3400 -0.1104 -0.5809
 8139SOL    HW125837   3.220   4.439   2.491 -0.5321 -0.9611 -0.1407
 8139SOL    HW225838   3.270   4.489   2.624 -0.8134 -0.5826 -0.1741
 8140SOL     OW25839   5.665   7.629   3.378  0.3957 -0.0742  0.5610
 8140SOL    HW125840   5.624   7.689   3.441  1.0691 -0.5937  1.5155
 8140SOL    HW225841   5.671   7.680   3.297 -0.5630  0.5785  0.8824
 8141SOL     OW25842   7.550   2.931   4.750 -0.1014  0.3359 -0.2918
 8141SOL    HW125843   7.471   2.954   4.701  0.9468  1.5201 -1.5059
 8141SOL    HW225844   7.524   2.857   4.805 -1.8916  0.3436 -1.0769
 8142SOL     OW25845   7.753   1.593   5.323  0.6707 -0.4280  0.5176
 8142SOL    HW125846   7.718   1.607   5.411  0.5576 -0.7333  0.5224
 8142SOL    HW225847   7.719   1.667   5.272  1.2434  0.0979  0.8734
 8143SOL     OW25848   6.303   2.108   4.999 -0.2161  0.2707  0.2415
 8143SOL    HW125849   6.259   2.188   5.027  0.7719  0.8872  0.0727
 8143SOL    HW225850   6.394   2.120   5.025  0.5730  0.4878 -2.3716
 8144SOL     OW25851   7.030   7.184   6.208 -0.3051  0.1406  0.0037
 8144SOL    HW125852   7.046   7.116   6.143  0.2584  0.4254 -0.1610
 8144SOL    HW225853   6.953   7.231   6.176  1.4015  1.9184 -1.8662
 8145SOL     OW25854   6.796   1.301   1.373  0.1358  0.3114 -0.5178
 8145SOL    HW125855   6.881   1.310   1.417 -0.3261  0.9606  0.2810
 8145SOL    HW225856   6.780   1.207   1.369 -0.4470  0.2227  2.0381
 8146SOL     OW25857   4.632   0.296   3.967 -0.0077 -0.3027 -0.3658
 8146SOL    HW125858   4.644   0.202   3.951 -2.8950 -0.6743 -0.8285
 8146SOL    HW225859   4.625   0.303   4.062 -0.7004 -0.7087 -0.3801
 8147SOL     OW25860   6.427   4.567   0.496  0.2364 -0.3736 -0.1002
 8147SOL    HW125861   6.464   4.572   0.407 -0.4813 -2.2102 -0.5519
 8147SOL    HW225862   6.494   4.522   0.547  0.4644  0.2905  0.1928
 8148SOL     OW25863   4.820   5.395   5.195  0.2093 -0.5123 -0.0504
 8148SOL    HW125864   4.777   5.419   5.276  0.3308  0.5103 -0.2677
 8148SOL    HW225865   4.765   5.326   5.158  0.1133 -0.9333  0.8535
 8149SOL     OW25866   2.182   5.870   5.248 -0.2859 -0.1443 -0.0246
 8149SOL    HW125867   2.219   5.802   5.191 -0.1947 -0.7376  0.7259
 8149SOL    HW225868   2.104   5.900   5.201 -0.5163 -1.0077 -0.2178
 8150SOL     OW25869   5.230   7.984   1.363  0.5901 -0.0746  0.4975
 8150SOL    HW125870   5.190   8.065   1.332 -0.1034  0.0368  1.6171
 8150SOL    HW225871   5.314   7.979   1.317 -0.9699 -0.7033 -2.5300
 8151SOL     OW25872   6.663   3.537   3.197  0.6172 -0.3680 -0.2076
 8151SOL    HW125873   6.663   3.443   3.180  0.1130 -0.3495 -0.3396
 8151SOL    HW225874   6.715   3.574   3.125  0.3833 -0.5043 -0.4528
 8152SOL     OW25875   5.843   3.511   3.947 -0.0792 -0.0705  0.1985
 8152SOL    HW125876   5.777   3.560   3.996 -0.0433 -0.1359  0.3130
 8152SOL    HW225877   5.922   3.519   4.000  0.2545  0.8167 -0.4165
 8153SOL     OW25878   7.741   7.217   2.231 -0.1032  0.0211  0.3865
 8153SOL    HW125879   7.733   7.134   2.279 -2.0864  0.8883  1.6631
 8153SOL    HW225880   7.805   7.268   2.281 -2.5568  1.1349  2.6006
 8154SOL     OW25881   7.739   1.816   2.480  0.5353  0.0456 -0.6116
 8154SOL    HW125882   7.753   1.909   2.497 -0.1178  0.1999 -0.8854
 8154SOL    HW225883   7.742   1.809   2.384 -1.8293  0.2095 -0.7453
 8155SOL     OW25884   3.464   3.583   6.022 -0.5237 -0.1900 -0.5273
 8155SOL    HW125885   3.428   3.669   6.045 -0.6157 -0.1930 -0.6606
 8155SOL    HW225886   3.528   3.601   5.954  2.8233  0.3601  2.4744
 8156SOL     OW25887   4.851   0.986   1.149  0.3104  0.2044 -0.0456
 8156SOL    HW125888   4.926   0.935   1.177  1.0631  1.7209  0.8458
 8156SOL    HW225889   4.864   1.072   1.189 -1.1254  0.9681 -1.1100
 8157SOL     OW25890   5.546   8.024   1.682  0.1839 -0.7473 -0.5270
 8157SOL    HW125891   5.530   7.931   1.693  1.9934 -1.2267 -1.5564
 8157SOL    HW225892   5.594   8.030   1.599  3.2340  0.6942  1.1993
 8158SOL     OW25893   0.537   0.361   4.354  0.0581  0.0605 -0.5351
 8158SOL    HW125894   0.550   0.451   4.384 -1.9864 -0.1107  1.0619
 8158SOL    HW225895   0.503   0.371   4.265 -1.2191  0.9512  0.0238
 8159SOL     OW25896   4.152   2.410   1.581  0.2699 -0.1692  0.5406
 8159SOL    HW125897   4.081   2.464   1.548  2.2348  1.3832 -1.4290
 8159SOL    HW225898   4.229   2.467   1.580  1.7975 -2.0690  1.5594
 8160SOL     OW25899   4.414   4.812   2.231 -0.2723 -0.0285 -0.2423
 8160SOL    HW125900   4.345   4.745   2.233 -0.0995 -0.2114 -0.4180
 8160SOL    HW225901   4.496   4.762   2.232 -0.1420  0.1560 -1.1661
 8161SOL     OW25902   3.104   3.497   1.460  0.0471  0.1757  0.6857
 8161SOL    HW125903   3.042   3.518   1.390 -0.7052  0.2776  1.3739
 8161SOL    HW225904   3.078   3.554   1.532  0.6114 -0.1669  1.1600
 8162SOL     OW25905   3.704   6.020   7.924 -0.0001 -0.0114 -0.3576
 8162SOL    HW125906   3.781   5.976   7.888  0.0787 -0.9230  0.8622
 8162SOL    HW225907   3.632   5.994   7.866  0.0124 -1.9284  0.3912
 8163SOL     OW25908   3.450   4.164   4.604 -0.1808 -0.3120  0.3700
 8163SOL    HW125909   3.374   4.174   4.662 -0.3254  1.2567 -0.0323
 8163SOL    HW225910   3.512   4.111   4.654 -0.6905  0.1889  1.5649
 8164SOL     OW25911   1.201   4.020   4.929 -0.7671  0.5705 -0.2098
 8164SOL    HW125912   1.219   4.006   4.836 -0.5369  1.4232 -0.2988
 8164SOL    HW225913   1.136   3.953   4.950 -0.3613 -0.0402 -0.8274
 8165SOL     OW25914   6.965   4.303   4.494 -0.1574 -0.1247  0.4625
 8165SOL    HW125915   7.020   4.286   4.418  0.1998 -1.9262  1.0710
 8165SOL    HW225916   6.876   4.309   4.458  0.0889 -0.2436 -0.1784
 8166SOL     OW25917   4.830   0.009   1.597  0.1032 -0.0239 -0.2436
 8166SOL    HW125918   4.769   0.070   1.639 -0.2521 -0.9951  0.7134
 8166SOL    HW225919   4.841   0.043   1.508  0.1210  1.5604  0.3335
 8167SOL     OW25920   1.531   0.421   4.883 -0.0940  0.3090  0.3343
 8167SOL    HW125921   1.564   0.509   4.866  0.7087  0.8956  4.1319
 8167SOL    HW225922   1.457   0.434   4.943 -1.1177 -1.5448 -0.4497
 8168SOL     OW25923   7.361   6.937   8.037  0.2821  0.5077  0.2435
 8168SOL    HW125924   7.357   6.928   7.942  0.8795  1.9886  0.0561
 8168SOL    HW225925   7.389   6.851   8.068 -0.7358 -0.2580 -0.8318
 8169SOL     OW25926   2.306   5.223   3.935  0.0444  0.0074  0.0691
 8169SOL    HW125927   2.277   5.143   3.979 -2.4484  0.4463 -0.6043
 8169SOL    HW225928   2.309   5.289   4.004 -0.0317 -0.1763  0.2484
 8170SOL     OW25929   5.869   3.178   6.690 -0.4700  0.6892  0.2696
 8170SOL    HW125930   5.963   3.184   6.676 -0.2315 -0.1717  1.3409
 8170SOL    HW225931   5.843   3.266   6.720  0.3222  0.4409  1.7319
 8171SOL     OW25932   3.083   2.873   0.057 -0.1787 -0.1708  0.2339
 8171SOL    HW125933   3.062   2.836  -0.029  1.2785  0.8641 -0.6159
 8171SOL    HW225934   3.142   2.808   0.097 -0.0879 -0.2039  0.0465
 8172SOL     OW25935   4.741   6.959   6.370  0.7456 -0.6930 -0.0976
 8172SOL    HW125936   4.681   6.887   6.355  0.0537 -0.0885 -0.2602
 8172SOL    HW225937   4.752   6.962   6.465 -0.0052 -0.3918 -0.0145
 8173SOL     OW25938   0.568   0.515   1.728  0.5039  0.2055  0.9116
 8173SOL    HW125939   0.489   0.465   1.707 -0.6234  2.0675  0.4862
 8173SOL    HW225940   0.557   0.539   1.820  0.6817  0.3136  0.9047
 8174SOL     OW25941   4.682   5.012   0.948 -0.0757  0.0388  0.2377
 8174SOL    HW125942   4.747   5.014   1.017  1.7636 -0.6167 -1.3864
 8174SOL    HW225943   4.727   5.047   0.871 -1.5272 -0.7428 -1.0287
 8175SOL     OW25944   2.369   4.173   5.137 -0.0407  0.1610  0.7033
 8175SOL    HW125945   2.437   4.238   5.160  1.5922 -1.1962 -0.0846
 8175SOL    HW225946   2.397   4.139   5.053 -2.1491  0.0601  0.0068
 8176SOL     OW25947   2.456   5.061   2.496 -0.3880  0.2418 -0.1336
 8176SOL    HW125948   2.378   5.033   2.544  0.2438 -1.4838 -0.0533
 8176SOL    HW225949   2.437   5.038   2.405 -0.0623 -0.0242 -0.1374
 8177SOL     OW25950   0.283   7.549   0.745 -0.3408 -0.6066  0.0552
 8177SOL    HW125951   0.344   7.497   0.692 -0.2141 -1.0998  0.6802
 8177SOL    HW225952   0.339   7.596   0.806 -0.1144  2.6926 -2.4157
 8178SOL     OW25953   2.164   8.029   2.768  0.2767 -0.0650  0.2261
 8178SOL    HW125954   2.121   8.085   2.704  1.6716 -0.4438 -1.0931
 8178SOL    HW225955   2.095   7.968   2.796 -0.3563  0.0982 -0.9163
 8179SOL     OW25956   5.525   4.986   3.636 -0.2187  0.1709  0.0570
 8179SOL    HW125957   5.598   4.948   3.589 -0.8027  0.3374 -1.0106
 8179SOL    HW225958   5.525   4.942   3.721  0.4459 -0.6068 -0.3393
 8180SOL     OW25959   8.049   2.301   0.239  0.2062  0.3042  0.1016
 8180SOL    HW125960   8.050   2.220   0.188 -0.5996 -0.5162  1.3255
 8180SOL    HW225961   8.063   2.272   0.329 -1.6344  1.3466  0.7748
 8181SOL     OW25962   5.141   1.776   4.703 -0.1006  1.0040  0.3778
 8181SOL    HW125963   5.096   1.698   4.673  0.6032 -0.0222  1.8377
 8181SOL    HW225964   5.076   1.846   4.698 -0.9779  0.1571 -0.2115
 8182SOL     OW25965   3.057   6.744   3.908  0.1496  0.1683  0.1574
 8182SOL    HW125966   3.039   6.721   3.817 -0.2269 -0.1276  0.3075
 8182SOL    HW225967   2.971   6.750   3.949  0.3823 -2.4436  1.1791
 8183SOL     OW25968   6.016   3.934   0.618  0.1060 -0.5603 -0.3536
 8183SOL    HW125969   6.023   4.012   0.563 -2.4141 -1.6201 -2.4267
 8183SOL    HW225970   5.944   3.954   0.678 -0.5612 -1.2414 -0.9048
 8184SOL     OW25971   4.450   0.195   6.318 -0.4543  0.6803  0.0558
 8184SOL    HW125972   4.515   0.126   6.332  1.2031  1.7710 -1.6531
 8184SOL    HW225973   4.442   0.238   6.403 -2.9860 -2.6577  1.7146
 8185SOL     OW25974   1.550   4.344   0.623 -0.4038 -0.4310  0.0083
 8185SOL    HW125975   1.621   4.364   0.685  1.2871 -2.4982 -1.0912
 8185SOL    HW225976   1.575   4.389   0.542  0.0101 -1.6302 -0.5553
 8186SOL     OW25977   5.876   4.792   2.073 -0.6161  0.0461  0.7224
 8186SOL    HW125978   5.854   4.881   2.046  2.2374  0.4481 -0.6432
 8186SOL    HW225979   5.954   4.803   2.128  1.3763 -1.7147 -1.5842
 8187SOL     OW25980   2.605   2.745   1.885  0.1670  0.0125 -0.8574
 8187SOL    HW125981   2.554   2.722   1.963 -0.5319 -0.5248 -1.4487
 8187SOL    HW225982   2.550   2.806   1.837  1.3849  1.8385 -0.0472
 8188SOL     OW25983   0.271   4.563   4.662 -0.0502 -0.2871 -0.0358
 8188SOL    HW125984   0.234   4.632   4.717  0.2316 -0.4398  0.3539
 8188SOL    HW225985   0.199   4.501   4.649 -0.0623 -0.3551  0.3434
 8189SOL     OW25986   3.154   4.391   2.917  0.4016 -0.4769 -0.0263
 8189SOL    HW125987   3.204   4.444   2.979 -1.0006  0.0937  0.6776
 8189SOL    HW225988   3.135   4.450   2.845  1.5416 -0.9753 -0.7543
 8190SOL     OW25989   4.059   0.801   3.657  0.0889  0.4145 -0.9422
 8190SOL    HW125990   4.116   0.793   3.733 -1.0639 -1.1241 -0.2007
 8190SOL    HW225991   4.116   0.839   3.589  1.5389  0.4147  0.2206
 8191SOL     OW25992   4.552   5.474   7.721 -0.0418 -0.6864  0.7270
 8191SOL    HW125993   4.533   5.382   7.740 -2.3680 -0.1007  1.5426
 8191SOL    HW225994   4.608   5.502   7.794 -1.0410 -0.9409  1.6073
 8192SOL     OW25995   3.680   3.638   5.873  0.0240 -0.6227  0.0106
 8192SOL    HW125996   3.706   3.554   5.834  0.9979 -0.4190  0.2042
 8192SOL    HW225997   3.747   3.656   5.938 -0.8777 -0.3071  0.8739
 8193SOL     OW25998   0.602   6.478   6.829  0.4964  1.3284  0.2791
 8193SOL    HW125999   0.538   6.468   6.758  1.7385 -1.3011 -0.5730
 8193SOL    HW226000   0.619   6.573   6.831 -1.8864  1.8676 -0.7879
 8194SOL     OW26001   6.968   6.974   6.496  0.3831 -0.4225 -0.1429
 8194SOL    HW126002   6.891   6.929   6.532  0.0755  0.8964  0.8988
 8194SOL    HW226003   6.953   7.066   6.514  3.3993 -0.2883  2.4278
 8195SOL     OW26004   3.255   2.001   3.467  0.0733  0.2218  0.5172
 8195SOL    HW126005   3.254   1.916   3.510  1.4746  0.4792  1.0988
 8195SOL    HW226006   3.303   2.058   3.526 -1.3595  1.5999  0.4235
 8196SOL     OW26007   2.304   6.291   1.764 -0.0837  0.4772  0.5524
 8196SOL    HW126008   2.327   6.217   1.708 -0.9087  0.6125  0.0082
 8196SOL    HW226009   2.225   6.328   1.723  1.0444  2.4511  0.0296
 8197SOL     OW26010   2.328   2.143   0.982 -0.2184  0.1697  0.0709
 8197SOL    HW126011   2.394   2.079   1.006  1.1260  1.2613 -0.5446
 8197SOL    HW226012   2.345   2.218   1.040 -0.8753  0.4977 -0.1474
 8198SOL     OW26013   6.360   6.982   1.448  0.2104  0.2007  0.4104
 8198SOL    HW126014   6.291   7.034   1.490  0.2898 -0.4961  1.4445
 8198SOL    HW226015   6.359   6.899   1.495  0.1102 -0.7402 -1.1866
 8199SOL     OW26016   0.788   4.585   1.992 -0.6961  0.5128  0.2072
 8199SOL    HW126017   0.735   4.506   1.998 -0.0804 -0.1882 -2.1920
 8199SOL    HW226018   0.724   4.656   1.985 -1.2712  0.0474  0.6437
 8200SOL     OW26019   0.693   4.385   5.948 -0.3137 -0.2051 -0.5781
 8200SOL    HW126020   0.705   4.475   5.979  1.8644 -0.4857 -0.4902
 8200SOL    HW226021   0.752   4.333   6.001 -0.7383 -1.5462 -1.3742
 8201SOL     OW26022   0.211   8.020   0.068  0.5815  0.3789  0.2656
 8201SOL    HW126023   0.187   8.058  -0.016 -0.4474 -1.6143 -0.4088
 8201SOL    HW226024   0.304   8.038   0.077  0.3132  2.3389 -0.3319
 8202SOL     OW26025   3.300   6.364   3.840 -0.9235 -0.3421  0.1399
 8202SOL    HW126026   3.256   6.409   3.912 -0.9530 -1.3605  0.7841
 8202SOL    HW226027   3.254   6.392   3.761  0.4570  2.5071  0.2193
 8203SOL     OW26028   0.874   5.004   0.338 -0.2772 -0.2519 -0.0962
 8203SOL    HW126029   0.958   4.992   0.294 -0.2183 -0.5810  0.1084
 8203SOL    HW226030   0.825   5.062   0.279 -0.0112 -0.2799 -0.3480
 8204SOL     OW26031   2.630   7.855   4.988 -0.0481  0.4514 -0.7119
 8204SOL    HW126032   2.638   7.898   5.073 -1.6683 -0.9960  0.2151
 8204SOL    HW226033   2.615   7.927   4.927 -2.1979  1.3000  0.7198
 8205SOL     OW26034   0.357   1.408   1.678 -0.3952 -0.9401  0.6510
 8205SOL    HW126035   0.341   1.338   1.741  0.0787 -1.3248  0.3539
 8205SOL    HW226036   0.386   1.482   1.730  0.3215 -1.3610  0.8627
 8206SOL     OW26037   7.953   7.918   3.870  0.2485  0.0976 -0.4752
 8206SOL    HW126038   7.980   7.827   3.855 -1.6644 -0.4592 -0.8362
 8206SOL    HW226039   7.914   7.945   3.787 -0.5763  0.7093  0.0896
 8207SOL     OW26040   1.165   5.746   4.236  0.3903  0.5101  0.4605
 8207SOL    HW126041   1.172   5.754   4.332 -0.0588 -1.6834  0.7287
 8207SOL    HW226042   1.254   5.759   4.204  0.9232 -0.7520  1.3777
 8208SOL     OW26043   4.029   0.764   0.556 -0.3386 -0.0660 -0.3647
 8208SOL    HW126044   4.026   0.674   0.588 -1.1894  0.0747 -0.0220
 8208SOL    HW226045   4.121   0.779   0.534  0.4354 -0.0379  2.4709
 8209SOL     OW26046   2.889   6.555   6.868  0.3388  0.2485  0.4857
 8209SOL    HW126047   2.971   6.601   6.855  0.5807 -0.4032 -0.4957
 8209SOL    HW226048   2.825   6.624   6.887  0.2143  1.3628 -3.1011
 8210SOL     OW26049   1.245   1.744   6.225 -0.0405  0.3127  0.7479
 8210SOL    HW126050   1.288   1.659   6.235  0.2189  0.7011  3.7620
 8210SOL    HW226051   1.263   1.769   6.135 -0.4270 -2.9477 -0.3629
 8211SOL     OW26052   3.806   6.502   4.635 -0.0296 -0.2799 -0.3836
 8211SOL    HW126053   3.816   6.597   4.631 -1.4232 -0.0354  1.0560
 8211SOL    HW226054   3.748   6.480   4.562  0.3911 -0.0545 -0.7914
 8212SOL     OW26055   2.117   4.241   7.725 -0.5823  0.0852  0.3621
 8212SOL    HW126056   2.066   4.177   7.674 -3.3936  2.3885  0.0344
 8212SOL    HW226057   2.106   4.213   7.816 -0.3147 -0.8267  0.1306
 8213SOL     OW26058   5.220   6.896   5.861  0.2474  0.1407 -0.1539
 8213SOL    HW126059   5.254   6.868   5.776 -2.6534 -0.2734 -1.3109
 8213SOL    HW226060   5.209   6.991   5.852  1.7077  0.4007  0.5090
 8214SOL     OW26061   3.311   7.117   3.014 -0.1417  0.0567  0.5364
 8214SOL    HW126062   3.215   7.118   3.015 -0.1882 -0.3249 -1.1497
 8214SOL    HW226063   3.335   7.172   2.941  1.0956  2.9926  2.9530
 8215SOL     OW26064   7.894   7.565   1.480  0.0016 -0.0594 -0.2414
 8215SOL    HW126065   7.884   7.603   1.567  0.9628 -0.5986  0.1165
 8215SOL    HW226066   7.879   7.471   1.493 -2.2218  0.1221 -1.0930
 8216SOL     OW26067   4.642   6.598   4.387  0.0677 -0.4085  0.7274
 8216SOL    HW126068   4.731   6.570   4.364 -0.8913 -1.9245 -1.5028
 8216SOL    HW226069   4.602   6.520   4.426 -1.7818 -1.5699 -3.0241
 8217SOL     OW26070   1.474   1.160   6.431  0.2596  0.0006  0.0434
 8217SOL    HW126071   1.526   1.119   6.362 -0.8118 -1.0753 -0.1642
 8217SOL    HW226072   1.531   1.159   6.508  1.3830  0.9993 -0.7406
 8218SOL     OW26073   2.207   1.376   7.758 -0.2262 -0.4729 -0.0804
 8218SOL    HW126074   2.233   1.384   7.849 -0.0996 -0.9115 -0.0752
 8218SOL    HW226075   2.232   1.287   7.733 -1.7232 -0.9270 -0.0804
 8219SOL     OW26076   7.772   7.020   1.625  0.1954  0.9844 -0.2251
 8219SOL    HW126077   7.850   6.968   1.602  0.6545  1.0524  1.0810
 8219SOL    HW226078   7.701   6.979   1.576  0.9116  0.4091 -0.8130
 8220SOL     OW26079   3.669   2.442   1.139  0.1251  0.2025  0.4957
 8220SOL    HW126080   3.702   2.385   1.207 -1.6202  0.5930  1.7332
 8220SOL    HW226081   3.737   2.509   1.128  1.6783 -1.3945 -0.1894
 8221SOL     OW26082   0.923   0.879   7.848 -0.0107  0.3038  0.0989
 8221SOL    HW126083   0.879   0.803   7.887 -1.4860  0.5407 -1.0175
 8221SOL    HW226084   1.005   0.843   7.813 -1.1246 -1.0307 -1.2968
 8222SOL     OW26085   1.153   6.562   7.296  0.0215 -0.3860 -0.2597
 8222SOL    HW126086   1.152   6.627   7.367 -0.8717 -1.3171  0.6221
 8222SOL    HW226087   1.242   6.566   7.260  0.2767  0.6014  0.4517
 8223SOL     OW26088   6.702   6.891   5.536 -0.1333 -0.2208 -0.1455
 8223SOL    HW126089   6.668   6.980   5.537  0.6490  0.1207 -1.2337
 8223SOL    HW226090   6.749   6.882   5.618 -1.8701 -0.3320  0.8755
 8224SOL     OW26091   2.771   5.461   0.081 -0.0867  0.7137 -0.2469
 8224SOL    HW126092   2.806   5.498   0.163 -0.7053 -0.8463  0.7631
 8224SOL    HW226093   2.683   5.498   0.075 -1.1453 -1.3375  1.3694
 8225SOL     OW26094   6.505   0.233   3.775 -0.2857  0.0869 -0.0410
 8225SOL    HW126095   6.498   0.298   3.705 -1.8559 -0.0155 -0.0131
 8225SOL    HW226096   6.424   0.241   3.824  0.6296 -0.0824  1.5907
 8226SOL     OW26097   3.820   5.265   7.898  0.3262 -0.0075  0.1177
 8226SOL    HW126098   3.845   5.283   7.989  0.3939 -0.5482  0.2110
 8226SOL    HW226099   3.819   5.170   7.892 -2.5019 -0.0641  0.3225
 8227SOL     OW26100   4.350   8.054   4.537 -0.1906  0.7531 -0.5550
 8227SOL    HW126101   4.323   8.008   4.458 -1.3833  3.5261 -1.9399
 8227SOL    HW226102   4.271   8.103   4.563  1.3282  3.2321 -0.2445
 8228SOL     OW26103   7.911   7.128   2.921  0.3968 -0.2323 -0.2265
 8228SOL    HW126104   7.828   7.175   2.934  0.5309  0.2624 -1.1166
 8228SOL    HW226105   7.938   7.105   3.010  0.7386  2.1140  0.3543
 8229SOL     OW26106   6.460   7.306   6.430  0.4389  0.5256  0.4203
 8229SOL    HW126107   6.421   7.219   6.438  1.0069  0.3842  1.8476
 8229SOL    HW226108   6.470   7.336   6.520  1.5237  1.4954 -0.0061
 8230SOL     OW26109   5.266   2.297   3.976  0.3574 -0.2605  0.2534
 8230SOL    HW126110   5.356   2.268   3.985  0.4716 -0.6947 -1.7965
 8230SOL    HW226111   5.226   2.234   3.915 -1.0420  0.4989  0.3333
 8231SOL     OW26112   2.914   0.965   6.174  0.3309  0.3508  0.1207
 8231SOL    HW126113   2.972   0.980   6.099 -1.0946  0.3560 -1.0348
 8231SOL    HW226114   2.908   0.870   6.181 -0.7583  0.3304 -0.8028
 8232SOL     OW26115   4.058   2.882   7.429  0.4506  0.4514  0.2122
 8232SOL    HW126116   4.140   2.931   7.443  0.2338  0.6242  0.8731
 8232SOL    HW226117   4.075   2.795   7.466  0.7274  0.1080 -0.6867
 8233SOL     OW26118   6.055   2.331   1.892 -0.3483  0.7524 -0.2437
 8233SOL    HW126119   6.063   2.237   1.875 -1.2034  0.5679  0.2778
 8233SOL    HW226120   6.004   2.364   1.818 -1.0420  0.5884  0.1531
 8234SOL     OW26121   4.748   5.846   5.961  0.2425  0.3570  0.2084
 8234SOL    HW126122   4.705   5.875   6.041  1.2436 -0.0547  0.9265
 8234SOL    HW226123   4.840   5.835   5.986  0.5289 -0.0258 -0.9342
 8235SOL     OW26124   5.464   0.605   5.881  0.2166 -0.0299  0.0286
 8235SOL    HW126125   5.430   0.649   5.803 -0.6239 -1.4451 -0.4361
 8235SOL    HW226126   5.547   0.650   5.898  1.2231 -0.6773 -2.6311
 8236SOL     OW26127   1.613   6.419   5.452  0.0010  0.2706 -0.0337
 8236SOL    HW126128   1.579   6.424   5.363 -1.7586  1.0407  0.6349
 8236SOL    HW226129   1.702   6.453   5.446  0.9847 -2.3092 -1.9504
 8237SOL     OW26130   6.214   3.344   0.879  0.4745  0.6594  0.4842
 8237SOL    HW126131   6.270   3.378   0.810  2.2180 -1.0073  1.0053
 8237SOL    HW226132   6.158   3.280   0.836 -0.3449  1.5753  0.1550
 8238SOL     OW26133   2.412   3.655   4.609 -0.2341  0.1580 -0.1641
 8238SOL    HW126134   2.447   3.597   4.541 -0.9778  0.1895 -0.5792
 8238SOL    HW226135   2.378   3.596   4.676  2.3729  0.0920  1.2218
 8239SOL     OW26136   7.534   2.865   2.859 -0.1794  0.0041 -0.4263
 8239SOL    HW126137   7.538   2.890   2.766  0.1639 -1.7542 -0.9207
 8239SOL    HW226138   7.622   2.881   2.892 -0.5535  1.5674 -0.1154
 8240SOL     OW26139   3.846   0.519   1.039  0.5525  0.3858  0.1068
 8240SOL    HW126140   3.769   0.573   1.060 -1.5089 -2.2457 -0.1629
 8240SOL    HW226141   3.834   0.495   0.947 -0.5555 -3.2017  1.0064
 8241SOL     OW26142   7.173   4.285   4.311 -0.1155 -0.1185 -0.0915
 8241SOL    HW126143   7.182   4.203   4.264 -2.2793 -0.7926  0.5383
 8241SOL    HW226144   7.146   4.349   4.244  0.2532 -0.2449 -0.3586
 8242SOL     OW26145   3.602   7.957   7.319 -0.1731 -0.7090  0.3429
 8242SOL    HW126146   3.675   7.901   7.294 -1.4946 -2.3959  0.1100
 8242SOL    HW226147   3.592   7.942   7.413 -1.1482 -1.6575  0.1023
 8243SOL     OW26148   1.466   5.373   6.493  0.5641  0.2784  0.7001
 8243SOL    HW126149   1.476   5.444   6.556  0.4764  1.1260 -0.2296
 8243SOL    HW226150   1.482   5.413   6.408  1.0615 -0.9352  0.1947
 8244SOL     OW26151   7.316   3.511   8.006 -0.2028 -0.2901 -0.4415
 8244SOL    HW126152   7.235   3.558   8.028 -0.7789 -0.9478 -1.0885
 8244SOL    HW226153   7.364   3.505   8.088 -0.3687  0.9317 -0.2299
 8245SOL     OW26154   3.947   3.621   1.089 -0.2786  0.0377 -0.2337
 8245SOL    HW126155   3.903   3.705   1.083  1.6447  1.0965 -0.4933
 8245SOL    HW226156   4.022   3.630   1.030 -0.2730 -2.0329 -0.6032
 8246SOL     OW26157   1.298   0.178   4.840  0.5426  0.5380  0.1165
 8246SOL    HW126158   1.302   0.180   4.744 -0.8213 -0.5065  0.0015
 8246SOL    HW226159   1.339   0.095   4.863 -1.0286 -0.2427  0.2563
 8247SOL     OW26160   5.875   6.603   7.423  0.0622 -0.2386 -0.8717
 8247SOL    HW126161   5.799   6.627   7.475 -0.4243  1.6220 -2.3062
 8247SOL    HW226162   5.859   6.643   7.337  2.8685  0.6409 -1.0962
 8248SOL     OW26163   2.629   2.174   2.507 -0.5944  0.0003  0.2179
 8248SOL    HW126164   2.629   2.093   2.557  1.9715 -0.3214 -0.1829
 8248SOL    HW226165   2.625   2.145   2.415  0.2312  0.3108  0.0775
 8249SOL     OW26166   7.585   0.138   2.022  0.1529 -0.7623  0.6702
 8249SOL    HW126167   7.548   0.222   2.047 -0.5718 -0.7705 -0.3302
 8249SOL    HW226168   7.667   0.132   2.072  1.1754  1.3709 -0.6328
 8250SOL     OW26169   6.214   7.444   2.081  0.2935 -0.0496  0.3870
 8250SOL    HW126170   6.225   7.514   2.146 -1.3162 -0.2121  0.8723
 8250SOL    HW226171   6.124   7.454   2.050  0.7957 -0.4467 -1.2922
 8251SOL     OW26172   1.272   6.833   0.005  0.4517  0.1050 -0.2345
 8251SOL    HW126173   1.319   6.768   0.058 -1.0183 -1.4697 -0.7913
 8251SOL    HW226174   1.180   6.813   0.019 -0.0821  2.3242 -0.1639
 8252SOL     OW26175   5.494   3.702   0.085 -0.1058 -0.7053  0.2261
 8252SOL    HW126176   5.430   3.644   0.043 -0.5800  0.3151 -0.5008
 8252SOL    HW226177   5.572   3.648   0.095 -0.7956 -1.7121  0.3181
 8253SOL     OW26178   3.781   6.124   5.722  1.2781 -0.1587  0.6886
 8253SOL    HW126179   3.710   6.066   5.749 -0.3134  1.4933  0.2461
 8253SOL    HW226180   3.849   6.065   5.690 -1.1666 -1.7894 -2.0006
 8254SOL     OW26181   5.009   2.728   4.256  0.1099  0.4741  0.2003
 8254SOL    HW126182   5.061   2.648   4.256  0.8898  0.9638 -0.0155
 8254SOL    HW226183   4.964   2.728   4.172  0.0799  0.2475  0.2153
 8255SOL     OW26184   0.712   7.316   0.809  0.0622 -0.0400  0.3054
 8255SOL    HW126185   0.682   7.329   0.899 -1.7226  1.1292 -0.4087
 8255SOL    HW226186   0.698   7.222   0.792 -2.1754  0.2174  0.4128
 8256SOL     OW26187   5.712   1.528   5.644  0.3483 -0.5176 -0.0069
 8256SOL    HW126188   5.731   1.440   5.676  0.8670 -0.4207 -0.0462
 8256SOL    HW226189   5.795   1.574   5.647 -0.4718  0.9747  3.0029
 8257SOL     OW26190   1.954   6.779   2.243  0.1919  0.5834 -0.1715
 8257SOL    HW126191   1.980   6.717   2.311 -0.8091 -0.1248 -0.4164
 8257SOL    HW226192   1.938   6.725   2.166 -1.4493  1.0290 -0.1763
 8258SOL     OW26193   1.893   3.191   3.052 -0.0299  0.6422 -0.4246
 8258SOL    HW126194   1.971   3.137   3.060  1.3865  2.5302 -1.0037
 8258SOL    HW226195   1.832   3.137   3.001  1.6356 -0.1278 -1.7051
 8259SOL     OW26196   2.895   3.259   3.095  0.6560 -0.2078 -0.2856
 8259SOL    HW126197   2.800   3.260   3.089  0.2924  3.1468  2.4605
 8259SOL    HW226198   2.915   3.201   3.168  0.6552 -0.4213 -0.4558
 8260SOL     OW26199   0.473   4.102   0.040  0.8791  0.0625 -0.1864
 8260SOL    HW126200   0.447   4.053  -0.038  0.1827  1.3384 -0.7944
 8260SOL    HW226201   0.490   4.191   0.008  0.7252  0.5689  1.0763
 8261SOL     OW26202   2.709   0.074   6.919 -0.0591  0.2248  0.3994
 8261SOL    HW126203   2.716   0.059   7.014  0.6626  0.2801  0.3590
 8261SOL    HW226204   2.729  -0.011   6.880  2.7790  0.8979  0.2114
 8262SOL     OW26205   7.054   4.065   1.527 -0.3101  0.0687 -0.1154
 8262SOL    HW126206   7.105   4.133   1.572 -0.9180  0.4722 -0.0250
 8262SOL    HW226207   7.083   3.983   1.568 -0.6818  0.4082  0.8582
 8263SOL     OW26208   1.984   7.637   7.880 -0.1712 -0.9275 -0.3310
 8263SOL    HW126209   1.894   7.664   7.893 -0.2728 -0.9039 -1.0453
 8263SOL    HW226210   2.008   7.592   7.962 -0.7170 -0.6462 -0.0160
 8264SOL     OW26211   1.724   1.462   7.204 -0.5198 -0.1626 -0.4977
 8264SOL    HW126212   1.770   1.438   7.284  0.7013  0.0819 -1.0939
 8264SOL    HW226213   1.633   1.472   7.230  0.1122  1.7470  1.2791
 8265SOL     OW26214   0.567   6.648   4.693  0.7440  0.2184 -0.1099
 8265SOL    HW126215   0.623   6.677   4.765 -1.0047  0.1566  1.3617
 8265SOL    HW226216   0.552   6.727   4.641  0.4838  0.7298  0.7191
 8266SOL     OW26217   1.428   5.387   3.333 -0.3530 -0.4181 -0.5723
 8266SOL    HW126218   1.465   5.431   3.257 -1.7674 -0.8393 -1.5391
 8266SOL    HW226219   1.504   5.369   3.389  0.7680 -0.3278 -1.9878
 8267SOL     OW26220   1.228   2.375   3.363  0.4330 -0.4572 -0.0224
 8267SOL    HW126221   1.240   2.293   3.412  1.1940  0.6039  1.6426
 8267SOL    HW226222   1.170   2.427   3.417  0.3268  0.2998 -0.8479
 8268SOL     OW26223   3.289   7.753   0.463  0.2115 -0.2554 -0.3290
 8268SOL    HW126224   3.303   7.832   0.514 -0.1807 -1.3072  1.5273
 8268SOL    HW226225   3.376   7.720   0.444  0.3858 -0.4684  0.7511
 8269SOL     OW26226   2.294   2.370   1.958  0.2095  0.0339  0.2724
 8269SOL    HW126227   2.381   2.402   1.931  0.2153  0.7408  1.0918
 8269SOL    HW226228   2.307   2.277   1.975  0.1474 -0.5577 -2.3668
 8270SOL     OW26229   3.652   1.236   1.498  0.1202  0.2367 -0.1327
 8270SOL    HW126230   3.586   1.292   1.539 -0.3255 -0.1511 -0.3114
 8270SOL    HW226231   3.655   1.158   1.554 -0.8131 -0.4905 -1.0581
 8271SOL     OW26232   0.251   7.749   1.443 -0.2280  0.2335  0.0112
 8271SOL    HW126233   0.344   7.763   1.461  0.0144 -1.2172 -0.0109
 8271SOL    HW226234   0.231   7.807   1.369  1.0005 -0.4688 -0.8928
 8272SOL     OW26235   7.400   7.833   4.787 -0.1815  0.2455 -0.4447
 8272SOL    HW126236   7.339   7.763   4.813 -1.8164  1.6220 -0.3941
 8272SOL    HW226237   7.455   7.792   4.720  0.7498 -1.8633  1.4583
 8273SOL     OW26238   0.440   2.238   5.615  0.0135  0.0500 -0.1644
 8273SOL    HW126239   0.409   2.319   5.574  0.8766  0.6668  0.3628
 8273SOL    HW226240   0.450   2.260   5.708  0.1938 -0.6842  0.0020
 8274SOL     OW26241   5.193   4.526   5.930 -0.5761 -0.2548  0.6748
 8274SOL    HW126242   5.266   4.526   5.868 -2.4065  0.2058 -1.6127
 8274SOL    HW226243   5.176   4.434   5.948  1.2994 -0.3651  2.2842
 8275SOL     OW26244   7.301   7.749   7.903  0.1962  0.9211 -0.4523
 8275SOL    HW126245   7.231   7.814   7.896 -0.5333  0.7155  3.0443
 8275SOL    HW226246   7.349   7.772   7.983  1.2752 -1.5246 -0.2753
 8276SOL     OW26247   7.727   4.672   4.393 -0.5210 -0.6609 -0.1396
 8276SOL    HW126248   7.665   4.705   4.327  0.1803  0.2426 -0.3746
 8276SOL    HW226249   7.808   4.660   4.344 -0.0048 -0.0251  0.5365
 8277SOL     OW26250   1.296   1.571   7.486 -0.2739 -0.1253  0.2452
 8277SOL    HW126251   1.235   1.562   7.559 -0.2612 -1.9612  0.0668
 8277SOL    HW226252   1.369   1.513   7.509 -0.2911 -0.7656 -1.2430
 8278SOL     OW26253   1.008   5.780   2.294 -0.2028 -0.0012 -0.2743
 8278SOL    HW126254   1.083   5.734   2.332 -0.4520 -0.3706 -0.2282
 8278SOL    HW226255   1.045   5.863   2.263  0.7278 -1.1425 -2.4344
 8279SOL     OW26256   1.083   0.014   3.500  0.4091 -0.0512  0.7575
 8279SOL    HW126257   1.112  -0.051   3.435  0.7791  0.1322  0.7388
 8279SOL    HW226258   1.125   0.095   3.474 -2.1755  0.9039 -0.8487
 8280SOL     OW26259   1.584   1.378   4.886  0.9910 -0.0847  0.2096
 8280SOL    HW126260   1.578   1.371   4.790  0.9895  0.0698  0.1978
 8280SOL    HW226261   1.617   1.466   4.901  0.4183  0.1046  0.3704
 8281SOL     OW26262   1.943   3.734   0.204  0.1529 -0.7110 -0.1859
 8281SOL    HW126263   1.992   3.655   0.227  0.3891 -0.5672 -0.1938
 8281SOL    HW226264   1.987   3.769   0.127 -0.5681 -1.1255 -0.7967
 8282SOL     OW26265   3.438   4.841   1.492 -0.0005  0.3018 -0.1276
 8282SOL    HW126266   3.351   4.827   1.528 -0.6671 -0.0463 -1.7968
 8282SOL    HW226267   3.448   4.936   1.491  0.6383  0.3110  2.2715
 8283SOL     OW26268   4.026   2.318   1.228 -0.3812  0.4225 -0.2992
 8283SOL    HW126269   4.044   2.292   1.319 -0.5902 -0.1286 -0.4132
 8283SOL    HW226270   4.084   2.263   1.176  0.7461  1.6910 -0.4444
 8284SOL     OW26271   2.469   5.532   3.711 -0.5246 -0.1634  0.8504
 8284SOL    HW126272   2.446   5.577   3.792  0.4463  0.0482  1.0197
 8284SOL    HW226273   2.422   5.580   3.643  0.4834  1.1279  1.0309
 8285SOL     OW26274   5.326   2.125   3.745 -0.1991 -0.4055 -0.0315
 8285SOL    HW126275   5.249   2.108   3.690 -1.8656 -1.5068  2.4621
 8285SOL    HW226276   5.351   2.039   3.778  0.7376  0.2171  0.9406
 8286SOL     OW26277   7.209   0.768   0.688  0.4988  0.3584 -0.0763
 8286SOL    HW126278   7.188   0.850   0.644 -0.1775  0.2070 -0.0548
 8286SOL    HW226279   7.208   0.789   0.781  0.2361  0.3103 -0.0669
 8287SOL     OW26280   3.376   1.407   2.416  0.3144  0.1738  0.7270
 8287SOL    HW126281   3.326   1.407   2.334 -0.5742  0.8032  1.2476
 8287SOL    HW226282   3.444   1.341   2.403  0.7843  0.9136 -0.8602
 8288SOL     OW26283   0.696   3.440   7.913  0.6014  0.1324 -0.1746
 8288SOL    HW126284   0.749   3.514   7.942 -0.0856  0.0625  1.4131
 8288SOL    HW226285   0.644   3.417   7.991  0.8201 -2.0226 -0.6083
 8289SOL     OW26286   1.701   3.895   1.753 -0.4026  0.6110 -0.5964
 8289SOL    HW126287   1.691   3.919   1.661 -0.2129 -0.3112 -0.8708
 8289SOL    HW226288   1.614   3.867   1.780 -0.6636  1.7490 -0.2267
 8290SOL     OW26289   7.891   4.317   2.730  0.3490  0.3462 -0.1854
 8290SOL    HW126290   7.874   4.288   2.641 -0.1267  0.2414 -0.0626
 8290SOL    HW226291   7.806   4.310   2.774  0.4095  1.1511  0.0625
 8291SOL     OW26292   3.254   8.033   1.870  0.2954  0.3735  0.5894
 8291SOL    HW126293   3.276   8.074   1.953  2.9815 -2.2621  1.3486
 8291SOL    HW226294   3.210   7.951   1.894 -0.8021  0.5370 -0.7130
 8292SOL     OW26295   2.000   2.117   0.636  0.0207 -0.5020 -0.0489
 8292SOL    HW126296   2.036   2.150   0.718 -0.4560  2.9179 -1.0546
 8292SOL    HW226297   1.920   2.168   0.622  0.2157 -0.7857 -2.7317
 8293SOL     OW26298   6.211   4.320   6.267 -0.2153 -0.1448 -0.0968
 8293SOL    HW126299   6.133   4.281   6.307 -0.4660 -1.2563 -1.5742
 8293SOL    HW226300   6.284   4.268   6.300 -0.1403  0.5144  0.8154
 8294SOL     OW26301   3.686   7.959   0.240  0.5465 -0.1957 -0.0251
 8294SOL    HW126302   3.749   7.926   0.304  0.6228 -2.6502 -1.2499
 8294SOL    HW226303   3.736   7.966   0.159  0.0604  1.3224 -0.2200
 8295SOL     OW26304   5.198   0.248   0.754 -0.0781 -0.1341 -0.1059
 8295SOL    HW126305   5.234   0.319   0.701 -1.0588 -1.5531 -2.8583
 8295SOL    HW226306   5.188   0.175   0.693 -1.5115 -1.8425  2.0186
 8296SOL     OW26307   0.154   6.510   2.544 -0.3235  0.6346 -0.0143
 8296SOL    HW126308   0.230   6.507   2.601 -1.9729  0.0090  2.3025
 8296SOL    HW226309   0.171   6.443   2.478  1.1472  0.5620  0.4100
 8297SOL     OW26310   2.871   4.798   0.472 -0.2379 -0.0755 -0.5838
 8297SOL    HW126311   2.944   4.853   0.499 -2.5515  2.6922  0.6243
 8297SOL    HW226312   2.887   4.714   0.515  1.8926  0.6418  0.1492
 8298SOL     OW26313   4.697   2.706   2.864 -0.0392  0.1140 -0.2381
 8298SOL    HW126314   4.712   2.766   2.791 -1.5940  0.1356 -0.5543
 8298SOL    HW226315   4.761   2.733   2.931 -0.0719  1.4817 -0.7488
 8299SOL     OW26316   6.645   3.578   5.928  0.6119 -0.1733  0.1189
 8299SOL    HW126317   6.549   3.584   5.925  0.5915 -0.3949  0.3070
 8299SOL    HW226318   6.674   3.669   5.935  0.4642 -0.0250 -1.1126
 8300SOL     OW26319   7.545   4.122   0.933 -0.1008  0.0127  0.1259
 8300SOL    HW126320   7.600   4.044   0.944  1.0352  0.8767  0.8408
 8300SOL    HW226321   7.502   4.133   1.017 -1.4197 -0.6590 -0.4319
 8301SOL     OW26322   2.118   7.335   1.099 -0.0321  0.2833 -0.1314
 8301SOL    HW126323   2.073   7.255   1.071  0.8939 -0.7554  1.1800
 8301SOL    HW226324   2.082   7.353   1.186 -0.5160  1.5628 -0.5671
 8302SOL     OW26325   7.620   3.569   6.029  0.4106 -0.1830  0.1219
 8302SOL    HW126326   7.586   3.525   6.107  0.2297  2.0459  1.3992
 8302SOL    HW226327   7.566   3.647   6.021  0.4305 -0.3443 -2.2861
 8303SOL     OW26328   5.832   6.315   6.442  0.2481 -0.0729  0.0940
 8303SOL    HW126329   5.846   6.222   6.458  0.2006 -0.5366 -2.1904
 8303SOL    HW226330   5.919   6.349   6.421  0.0291 -0.0227 -0.8076
 8304SOL     OW26331   3.108   5.941   4.933  0.0212  0.0236 -0.4068
 8304SOL    HW126332   3.077   5.989   4.856 -1.6935  0.2221  0.3710
 8304SOL    HW226333   3.034   5.942   4.993  1.3619 -0.0260  1.3159
 8305SOL     OW26334   0.095   2.903   6.904  0.3982 -0.6812  0.8939
 8305SOL    HW126335   0.078   2.834   6.968 -1.3289 -1.6275 -0.4747
 8305SOL    HW226336   0.013   2.953   6.902  0.5222 -0.5051 -0.3336
 8306SOL     OW26337   3.088   5.855   2.668  0.0323 -0.5841 -0.0476
 8306SOL    HW126338   3.054   5.823   2.583 -1.3439 -1.9509  0.9486
 8306SOL    HW226339   3.142   5.783   2.700 -1.2226 -1.0108  1.1934
 8307SOL     OW26340   4.399   5.922   7.200  0.0025  0.1420  0.6956
 8307SOL    HW126341   4.399   5.991   7.267  0.2500 -0.9945  1.9258
 8307SOL    HW226342   4.314   5.880   7.210 -0.7967  1.2028 -1.1164
 8308SOL     OW26343   4.404   0.448   3.837  0.0203 -0.1204  0.0820
 8308SOL    HW126344   4.464   0.418   3.905 -0.6710  0.0480  0.7789
 8308SOL    HW226345   4.383   0.369   3.787 -0.5475 -0.5187  0.9265
 8309SOL     OW26346   6.761   0.138   0.686  0.3174 -0.2207 -0.2576
 8309SOL    HW126347   6.834   0.104   0.738  0.1647  0.0256  0.1177
 8309SOL    HW226348   6.694   0.161   0.750 -1.7696 -4.1917 -0.7090
 8310SOL     OW26349   1.295   1.170   7.819 -0.2066 -0.3142  0.3131
 8310SOL    HW126350   1.378   1.163   7.866  0.1340 -1.0948 -0.3810
 8310SOL    HW226351   1.244   1.094   7.848 -0.4518 -0.1602  0.2915
 8311SOL     OW26352   4.324   4.196   0.350  0.1547 -0.3446  0.6747
 8311SOL    HW126353   4.335   4.290   0.367 -0.7562 -0.4455  1.9547
 8311SOL    HW226354   4.365   4.182   0.265 -0.5427  1.3921  0.0182
 8312SOL     OW26355   1.397   5.861   1.357  0.7840 -0.5052 -0.1990
 8312SOL    HW126356   1.447   5.861   1.438 -0.2815  0.5057  0.4901
 8312SOL    HW226357   1.378   5.953   1.341  1.1821 -0.6637 -1.7447
 8313SOL     OW26358   5.816   0.293   5.402 -0.5889 -0.1656 -0.2276
 8313SOL    HW126359   5.801   0.386   5.382  0.1709 -0.4836 -2.6916
 8313SOL    HW226360   5.735   0.250   5.374 -0.3148 -0.3956 -0.6899
 8314SOL     OW26361   5.218   0.196   3.431 -0.0706 -0.1637 -0.4278
 8314SOL    HW126362   5.257   0.158   3.510 -0.2752 -0.7382 -0.5985
 8314SOL    HW226363   5.145   0.138   3.410 -0.9151  0.7862 -0.2210
 8315SOL     OW26364   6.318   0.732   5.679  0.1384  0.8893  0.8751
 8315SOL    HW126365   6.361   0.784   5.610 -0.2387 -0.1870 -0.2042
 8315SOL    HW226366   6.230   0.770   5.686 -0.3678  0.0099 -0.3892
 8316SOL     OW26367   3.520   4.255   7.862  0.5033  0.0190 -0.3436
 8316SOL    HW126368   3.448   4.298   7.909  1.8580  1.0893  0.8336
 8316SOL    HW226369   3.504   4.277   7.770  0.4638  2.0922  0.1001
 8317SOL     OW26370   0.358   7.244   6.178  0.0557  0.7203 -0.3038
 8317SOL    HW126371   0.440   7.264   6.224  0.5308  0.6501 -1.1094
 8317SOL    HW226372   0.303   7.321   6.193  0.1799  0.6749  0.4291
 8318SOL     OW26373   2.728   3.242   3.822  0.0289  0.1122  0.5743
 8318SOL    HW126374   2.707   3.214   3.911  0.8345 -3.0076 -0.0658
 8318SOL    HW226375   2.819   3.213   3.809  0.9916  3.2041 -0.3381
 8319SOL     OW26376   5.082   1.550   3.439 -0.5513  0.2629 -0.1310
 8319SOL    HW126377   4.989   1.543   3.415 -0.5603 -1.5617  0.2688
 8319SOL    HW226378   5.091   1.493   3.516  1.0109 -0.0792 -0.5353
 8320SOL     OW26379   2.667   3.494   7.029  0.1530 -0.1430 -1.0609
 8320SOL    HW126380   2.604   3.519   6.962  0.8548  2.2528 -0.9358
 8320SOL    HW226381   2.689   3.576   7.073  1.0580 -1.3701  0.9277
 8321SOL     OW26382   0.982   4.790   1.471 -0.1507  0.0824  0.3724
 8321SOL    HW126383   1.055   4.732   1.494 -0.7049 -0.6084  0.4133
 8321SOL    HW226384   0.923   4.785   1.546 -0.0780  0.9112  0.4887
 8322SOL     OW26385   1.044   6.306   1.087  0.1162  0.2553  0.2137
 8322SOL    HW126386   1.049   6.251   1.008 -0.8048  0.2901  0.1171
 8322SOL    HW226387   1.131   6.299   1.126  0.7419  0.6003 -1.0524
 8323SOL     OW26388   5.642   4.781   0.586 -0.2921  0.0042  0.2768
 8323SOL    HW126389   5.706   4.729   0.538 -0.3412  1.0549 -0.9574
 8323SOL    HW226390   5.630   4.860   0.533  1.7226  2.5740  3.2591
 8324SOL     OW26391   5.868   1.155   6.839 -0.4893 -0.3004  0.3819
 8324SOL    HW126392   5.830   1.100   6.770 -0.8125  0.5291 -0.1041
 8324SOL    HW226393   5.959   1.123   6.846 -0.1726  0.1741 -1.0494
 8325SOL     OW26394   1.251   4.288   6.814 -0.1516 -0.3311  0.2353
 8325SOL    HW126395   1.273   4.251   6.729 -1.9609  0.5406 -0.6879
 8325SOL    HW226396   1.186   4.228   6.851 -0.4058  0.0121  0.3569
 8326SOL     OW26397   0.483   7.617   4.590 -0.5435 -0.3234  0.0200
 8326SOL    HW126398   0.454   7.526   4.587 -1.0685 -0.1427 -1.7246
 8326SOL    HW226399   0.568   7.617   4.545  0.1628 -0.1589  1.3072
 8327SOL     OW26400   6.780   7.600   5.422 -0.2414 -0.0293 -0.0027
 8327SOL    HW126401   6.825   7.672   5.379  0.6257 -0.0764  0.7958
 8327SOL    HW226402   6.690   7.631   5.432 -0.5087 -0.0456 -1.8807
 8328SOL     OW26403   2.447   7.890   4.192 -0.2291 -0.0429  0.2914
 8328SOL    HW126404   2.416   7.836   4.120 -1.0141 -1.7071  1.8058
 8328SOL    HW226405   2.526   7.846   4.223 -1.5592 -1.1580  2.3372
 8329SOL     OW26406   3.690   6.769   8.002  0.2766 -0.4225  0.3230
 8329SOL    HW126407   3.762   6.824   8.034  0.3964 -1.0467  1.1362
 8329SOL    HW226408   3.716   6.747   7.912 -0.1607  1.5049 -0.3246
 8330SOL     OW26409   7.918   2.032   0.198 -0.2397  0.1601  0.0208
 8330SOL    HW126410   7.940   1.991   0.114  0.2892 -0.2410  0.3490
 8330SOL    HW226411   7.869   1.965   0.245  1.1278 -0.3453  0.7919
 8331SOL     OW26412   5.226   0.818   1.895 -0.3892  0.6791  0.1453
 8331SOL    HW126413   5.139   0.845   1.866 -0.4052  2.5621  1.7177
 8331SOL    HW226414   5.243   0.737   1.848 -2.2753  1.1528 -1.4859
 8332SOL     OW26415   7.008   5.342   2.773 -0.2254 -0.3289 -0.3121
 8332SOL    HW126416   6.945   5.330   2.844  0.9275 -1.6648  0.5218
 8332SOL    HW226417   7.011   5.258   2.729  1.4340 -0.4985  0.0640
 8333SOL     OW26418   2.031   2.576   7.390  0.0131  0.1651 -0.0500
 8333SOL    HW126419   2.044   2.499   7.334  0.2447 -0.6122  1.0346
 8333SOL    HW226420   1.955   2.621   7.352  0.4429 -0.0891 -1.2414
 8334SOL     OW26421   5.610   2.815   5.062  0.4278 -0.2213 -0.1015
 8334SOL    HW126422   5.548   2.816   4.988 -0.0497  1.0651  0.2943
 8334SOL    HW226423   5.696   2.810   5.020  0.1132 -0.9605 -0.6918
 8335SOL     OW26424   5.990   1.666   7.061 -0.1710 -0.5252  0.9830
 8335SOL    HW126425   6.007   1.691   7.152  3.0806  0.1344  0.3463
 8335SOL    HW226426   6.028   1.579   7.053  0.4196 -0.1998  0.0737
 8336SOL     OW26427   5.040   2.403   3.102 -0.0624  0.2258  0.2200
 8336SOL    HW126428   4.948   2.415   3.123 -0.0171 -0.1774  0.6745
 8336SOL    HW226429   5.084   2.478   3.143 -0.1470  0.2267  0.3101
 8337SOL     OW26430   7.252   4.788   3.482 -0.0041 -0.6858  0.5263
 8337SOL    HW126431   7.200   4.848   3.427 -0.2612 -1.7176 -0.3973
 8337SOL    HW226432   7.343   4.814   3.466 -0.1784  0.6690  1.6007
 8338SOL     OW26433   3.411   7.736   5.540  0.3186  0.2016 -0.6111
 8338SOL    HW126434   3.422   7.738   5.635 -1.3416  0.9871 -0.4011
 8338SOL    HW226435   3.388   7.826   5.517  0.7228  0.0226 -1.7613
 8339SOL     OW26436   6.239   1.882   0.023 -0.0317  0.1457 -0.2582
 8339SOL    HW126437   6.201   1.846  -0.057  2.1237 -0.5669 -1.0314
 8339SOL    HW226438   6.277   1.965  -0.003  0.2923  0.1223  0.1277
 8340SOL     OW26439   6.197   3.719   0.680  0.4211 -0.2919 -0.5108
 8340SOL    HW126440   6.249   3.791   0.643 -0.2142  0.6142  0.2981
 8340SOL    HW226441   6.117   3.761   0.711  0.3199 -1.2426  0.5885
 8341SOL     OW26442   7.447   2.192   2.536 -0.1557 -0.7840  0.6040
 8341SOL    HW126443   7.456   2.181   2.631 -0.6896 -0.1030  0.7416
 8341SOL    HW226444   7.402   2.112   2.507 -1.6005 -0.2086  1.1971
 8342SOL     OW26445   1.546   0.265   3.297  0.1523 -0.2301 -0.0300
 8342SOL    HW126446   1.567   0.172   3.289 -0.1549 -0.5886  2.5303
 8342SOL    HW226447   1.621   0.303   3.342  1.8500  1.5681 -3.8922
 8343SOL     OW26448   1.195   0.591   3.407 -0.1427  0.2368  0.0123
 8343SOL    HW126449   1.209   0.668   3.462 -0.8309  0.0744  0.4203
 8343SOL    HW226450   1.268   0.593   3.345  1.1762 -0.0940  1.4838
 8344SOL     OW26451   5.649   3.235   6.193 -0.3930 -0.2804  0.3310
 8344SOL    HW126452   5.723   3.175   6.202 -1.0717 -0.9368  1.8498
 8344SOL    HW226453   5.654   3.265   6.102  1.2293 -0.9603  0.1624
 8345SOL     OW26454   4.821   7.749   3.495 -0.1974  0.0042 -0.3335
 8345SOL    HW126455   4.914   7.771   3.500 -0.1174 -0.5400  0.7206
 8345SOL    HW226456   4.816   7.657   3.523 -0.9844 -0.1534 -0.9509
 8346SOL     OW26457   7.110   1.910   7.525  0.0658  0.0103 -0.2253
 8346SOL    HW126458   7.187   1.956   7.491  0.9502 -1.4804 -0.3341
 8346SOL    HW226459   7.071   1.971   7.587  1.9016  0.4688  0.5521
 8347SOL     OW26460   1.381   4.557   2.951  0.4193 -0.8856  0.0994
 8347SOL    HW126461   1.382   4.502   2.872 -0.4126 -1.0545  0.1911
 8347SOL    HW226462   1.419   4.502   3.019 -2.8396 -2.4980  0.8662
 8348SOL     OW26463   3.842   1.870   2.654 -0.1321 -0.5727  1.3273
 8348SOL    HW126464   3.903   1.919   2.600 -1.1855 -1.6544 -0.9986
 8348SOL    HW226465   3.829   1.924   2.731  1.2715  1.1837  0.4004
 8349SOL     OW26466   0.529   6.853   7.655 -0.0457 -0.1907  0.4807
 8349SOL    HW126467   0.543   6.921   7.589  1.3860 -0.4775  0.4500
 8349SOL    HW226468   0.481   6.784   7.609 -1.1746  0.6082  0.4119
 8350SOL     OW26469   3.110   2.050   3.229  0.1304 -0.0228  0.0941
 8350SOL    HW126470   3.138   2.042   3.321  0.1973  0.6936  0.1462
 8350SOL    HW226471   3.122   1.962   3.193  1.2744 -0.0391  0.4546
 8351SOL     OW26472   3.459   2.711   5.004  0.7856 -0.4471  0.8593
 8351SOL    HW126473   3.411   2.671   5.077 -0.5189 -0.1397  0.2019
 8351SOL    HW226474   3.501   2.787   5.042  1.7350 -1.3574  1.7060
 8352SOL     OW26475   1.299   8.055   8.053 -0.2797 -0.1348  0.4166
 8352SOL    HW126476   1.224   8.056   8.113  0.5081  0.3404  1.4235
 8352SOL    HW226477   1.357   7.987   8.089  0.5228  0.6464  0.6193
 8353SOL     OW26478   3.611   3.915   2.661  0.1801 -0.1330  0.4301
 8353SOL    HW126479   3.546   3.846   2.677 -0.4761  0.5999  0.9698
 8353SOL    HW226480   3.652   3.890   2.578 -2.6363  0.7702 -1.3508
 8354SOL     OW26481   4.699   5.791   7.460 -0.0881  0.3738  0.2176
 8354SOL    HW126482   4.749   5.750   7.531  0.7400  0.6761 -0.1692
 8354SOL    HW226483   4.619   5.739   7.454  0.5482 -0.6656  0.3219
 8355SOL     OW26484   7.232   1.470   6.274  0.0076  0.5500 -0.0786
 8355SOL    HW126485   7.247   1.436   6.362  0.8927 -0.8019 -0.7228
 8355SOL    HW226486   7.154   1.423   6.244 -0.2793  0.9931 -0.0406
 8356SOL     OW26487   6.253   0.509   6.874  0.5142  0.6554  0.2900
 8356SOL    HW126488   6.205   0.574   6.925  0.2920  0.9882 -0.3292
 8356SOL    HW226489   6.191   0.437   6.863  0.3237  0.8727 -0.0831
 8357SOL     OW26490   4.530   1.970   5.394  0.2869  0.3399  0.1208
 8357SOL    HW126491   4.505   2.023   5.469 -0.2828 -0.3087  0.4008
 8357SOL    HW226492   4.555   1.885   5.432 -0.6981 -0.2287 -0.4722
 8358SOL     OW26493   5.698   2.140   4.628  0.2550 -0.1628  0.1653
 8358SOL    HW126494   5.690   2.218   4.682  1.4623 -0.0086  0.1573
 8358SOL    HW226495   5.692   2.173   4.538 -2.5198 -0.5104  0.1416
 8359SOL     OW26496   1.317   5.981   0.599 -0.1350 -0.4438  0.1062
 8359SOL    HW126497   1.391   5.922   0.615  1.4127  1.0090 -1.3497
 8359SOL    HW226498   1.240   5.929   0.623  1.2404 -2.5186  0.3126
 8360SOL     OW26499   4.188   0.972   6.429  0.4999 -0.4125  0.8013
 8360SOL    HW126500   4.258   0.907   6.434 -0.0686 -1.0392  0.7670
 8360SOL    HW226501   4.107   0.921   6.440 -0.3096 -0.4556 -3.4942
 8361SOL     OW26502   5.438   2.039   4.641  0.3830 -0.3033  0.7330
 8361SOL    HW126503   5.418   1.952   4.675  1.8140 -1.7192 -1.7230
 8361SOL    HW226504   5.534   2.046   4.648  0.8105 -0.7754 -2.8551
 8362SOL     OW26505   1.830   0.635   2.207 -0.0217 -0.4117 -0.1727
 8362SOL    HW126506   1.826   0.724   2.172  0.3590 -0.6413 -0.8017
 8362SOL    HW226507   1.890   0.588   2.149 -1.2376 -1.4440 -0.6213
 8363SOL     OW26508   6.703   5.675   7.179 -0.1251  0.1064 -0.3436
 8363SOL    HW126509   6.796   5.668   7.197 -0.2724 -2.3881 -0.1962
 8363SOL    HW226510   6.662   5.667   7.265 -0.5138  3.3210 -0.1024
 8364SOL     OW26511   8.054   5.608   6.505 -0.1218  0.0232 -0.6047
 8364SOL    HW126512   8.062   5.699   6.536 -0.3610  0.3323 -1.4412
 8364SOL    HW226513   7.990   5.612   6.434  0.3787 -0.6877 -1.1091
 8365SOL     OW26514   1.621   6.304   2.957  0.0201  0.6107  0.0726
 8365SOL    HW126515   1.686   6.245   2.995 -1.1609 -0.8886 -0.1029
 8365SOL    HW226516   1.542   6.250   2.948 -1.4038  2.4527  0.7019
 8366SOL     OW26517   1.732   4.800   4.004 -0.5645 -0.0879  0.0410
 8366SOL    HW126518   1.684   4.722   4.033 -1.3139  0.4468  0.2542
 8366SOL    HW226519   1.665   4.856   3.965  0.1938 -0.1711 -1.4623
 8367SOL     OW26520   2.996   4.934   4.373  0.3864 -0.4672  0.2806
 8367SOL    HW126521   3.024   4.843   4.374  0.9695 -0.3443 -1.2964
 8367SOL    HW226522   3.069   4.982   4.412 -0.6634 -0.7889  2.8393
 8368SOL     OW26523   5.211   4.395   7.881 -0.5361 -0.1395 -0.6652
 8368SOL    HW126524   5.249   4.381   7.794 -1.4129 -2.5098 -0.7561
 8368SOL    HW226525   5.265   4.463   7.920  2.4100 -1.7170 -1.6185
 8369SOL     OW26526   4.353   2.581   4.528  0.0698 -0.2066  1.0356
 8369SOL    HW126527   4.280   2.555   4.585  0.6698  1.6655  2.7984
 8369SOL    HW226528   4.344   2.676   4.519  2.1534  0.0522  1.1580
 8370SOL     OW26529   4.094   7.812   5.842 -0.1598 -0.6013  0.0042
 8370SOL    HW126530   4.008   7.831   5.806  2.2698  1.4420 -5.9720
 8370SOL    HW226531   4.121   7.894   5.883 -0.1763 -0.4244 -0.3348
 8371SOL     OW26532   2.529   7.330   3.914  0.2327 -0.3519  0.3402
 8371SOL    HW126533   2.499   7.361   3.828 -1.9703  2.1730  1.8542
 8371SOL    HW226534   2.449   7.311   3.962  1.0113  2.7716  3.2853
 8372SOL     OW26535   3.836   3.016   5.797  0.0361  0.0934 -0.1555
 8372SOL    HW126536   3.927   3.043   5.810 -0.2562  0.7858  0.4957
 8372SOL    HW226537   3.799   3.012   5.885 -0.4915 -0.4668 -0.3957
 8373SOL     OW26538   3.592   2.613   4.797  0.0903  0.5676  0.6559
 8373SOL    HW126539   3.546   2.648   4.872  0.9068 -0.3125  1.6004
 8373SOL    HW226540   3.528   2.556   4.753 -0.3667  1.0309  0.7183
 8374SOL     OW26541   3.127   0.550   5.610 -0.1592 -0.4682  0.2870
 8374SOL    HW126542   3.092   0.484   5.550 -1.4779  0.7499 -0.3493
 8374SOL    HW226543   3.135   0.630   5.557 -1.4801  0.6821  1.7082
 8375SOL     OW26544   2.216   6.926   7.900  0.1046  0.2232  0.0527
 8375SOL    HW126545   2.247   7.016   7.904  3.2503 -0.7398  2.6480
 8375SOL    HW226546   2.289   6.877   7.862 -1.2183 -1.3703 -0.5778
 8376SOL     OW26547   6.666   5.353   3.857 -1.4036 -0.4184 -0.0003
 8376SOL    HW126548   6.739   5.290   3.854  0.9955  2.0907  1.2606
 8376SOL    HW226549   6.652   5.369   3.950 -1.2429  1.6008 -0.2890
 8377SOL     OW26550   6.077   1.811   6.816 -0.5245  0.0753 -0.1753
 8377SOL    HW126551   6.048   1.766   6.896  0.5600 -0.0511  0.1629
 8377SOL    HW226552   6.126   1.887   6.848  1.1097 -0.7235 -0.6680
 8378SOL     OW26553   4.404   6.496   6.079  0.3262  0.1554 -0.0629
 8378SOL    HW126554   4.429   6.481   5.988  1.0137 -0.3049  0.1927
 8378SOL    HW226555   4.309   6.501   6.078  0.3348  0.2414 -0.8186
 8379SOL     OW26556   5.476   5.143   2.316 -1.0700  0.0115 -0.6760
 8379SOL    HW126557   5.563   5.160   2.279  0.2582 -2.5357  0.9667
 8379SOL    HW226558   5.449   5.227   2.354  0.3395  1.0418 -1.8494
 8380SOL     OW26559   4.296   1.758   3.613 -0.7751 -0.3578  0.2185
 8380SOL    HW126560   4.309   1.741   3.706  2.3181  0.1402  0.0038
 8380SOL    HW226561   4.318   1.850   3.602  0.1698 -0.7169 -1.1553
 8381SOL     OW26562   6.737   1.485   4.834  0.1191 -0.3203  0.3630
 8381SOL    HW126563   6.744   1.427   4.910 -1.4807 -0.4150  0.4767
 8381SOL    HW226564   6.649   1.468   4.798  0.3677  0.6113 -0.7755
 8382SOL     OW26565   4.266   1.946   7.801  0.1881 -0.2010 -0.1285
 8382SOL    HW126566   4.199   1.908   7.746  0.9731 -2.3845  0.3285
 8382SOL    HW226567   4.345   1.944   7.748  0.2882  0.6587 -0.0251
 8383SOL     OW26568   5.523   3.988   3.321  0.0227 -0.2668 -0.4543
 8383SOL    HW126569   5.433   4.016   3.310  0.3656  0.5525 -1.3622
 8383SOL    HW226570   5.529   3.959   3.412 -1.6346 -2.2259 -0.9009
 8384SOL     OW26571   6.711   5.406   1.648 -0.6482 -0.5072  0.3434
 8384SOL    HW126572   6.624   5.403   1.609  0.9208  0.5620 -3.6869
 8384SOL    HW226573   6.753   5.325   1.621  0.2322 -0.1623  0.6420
 8385SOL     OW26574   2.735   6.747   3.979 -0.0247 -0.3500 -0.1163
 8385SOL    HW126575   2.690   6.830   4.000  0.6177  0.7426 -2.6850
 8385SOL    HW226576   2.720   6.735   3.886  0.7745 -2.6599 -0.0049
 8386SOL     OW26577   0.911   1.005   2.836  0.1191  0.3549 -0.3286
 8386SOL    HW126578   0.887   0.914   2.849 -1.6783  0.7995 -0.3284
 8386SOL    HW226579   0.949   1.007   2.748  2.4205 -0.7694  0.5641
 8387SOL     OW26580   0.388   0.574   6.477  0.5601 -0.3439  0.5534
 8387SOL    HW126581   0.333   0.511   6.525  0.5426 -1.1591 -0.4880
 8387SOL    HW226582   0.445   0.519   6.424  1.9009  0.5118  1.0697
 8388SOL     OW26583   2.329   4.153   6.812  0.1624 -0.1167 -0.3663
 8388SOL    HW126584   2.303   4.163   6.721 -0.2697  1.4735 -0.1043
 8388SOL    HW226585   2.386   4.076   6.813 -0.3765 -0.5712 -1.8457
 8389SOL     OW26586   0.361   4.736   6.555  0.0419 -0.4503  0.3190
 8389SOL    HW126587   0.279   4.721   6.603 -0.4192  1.0215  0.0525
 8389SOL    HW226588   0.423   4.765   6.621 -0.5510  1.4291  0.1254
 8390SOL     OW26589   0.754   7.908   4.606  0.0944 -0.3776  0.7345
 8390SOL    HW126590   0.686   7.857   4.650  0.2614  1.0134  2.7015
 8390SOL    HW226591   0.816   7.931   4.675  2.2099 -0.9556 -0.8580
 8391SOL     OW26592   2.653   0.835   5.289 -0.3539  0.0258  0.2112
 8391SOL    HW126593   2.559   0.852   5.296 -0.5327 -1.1848  0.8961
 8391SOL    HW226594   2.659   0.741   5.272  0.7626  0.0030  0.6910
 8392SOL     OW26595   2.556   5.448   2.453  0.1743 -0.1070  0.2543
 8392SOL    HW126596   2.563   5.539   2.424 -0.3006 -0.3805 -0.7612
 8392SOL    HW226597   2.463   5.428   2.448  0.4564 -1.2455 -1.5187
 8393SOL     OW26598   3.599   3.940   1.631 -0.1971 -0.0905 -0.4336
 8393SOL    HW126599   3.601   3.993   1.710  1.8891  0.9223 -1.1061
 8393SOL    HW226600   3.635   3.855   1.657 -0.7681 -0.2184 -0.0300
 8394SOL     OW26601   0.721   5.238   1.168  0.0259  0.3351  0.3726
 8394SOL    HW126602   0.803   5.232   1.216  0.8398 -0.4511 -1.0564
 8394SOL    HW226603   0.699   5.331   1.169  1.6846  0.7727 -0.4096
 8395SOL     OW26604   1.843   3.331   5.810  0.2087 -0.3000  0.6085
 8395SOL    HW126605   1.873   3.244   5.834  0.7397 -0.5851 -0.9297
 8395SOL    HW226606   1.913   3.366   5.754  0.2560  1.3378  1.6241
 8396SOL     OW26607   1.813   1.654   0.927 -0.2513 -0.0050 -0.6635
 8396SOL    HW126608   1.776   1.624   1.011 -1.3004 -0.7994 -1.3820
 8396SOL    HW226609   1.878   1.589   0.905  0.7087  0.7071 -0.0317
 8397SOL     OW26610   3.711   5.511   2.594 -0.1956 -0.0978  0.0054
 8397SOL    HW126611   3.759   5.431   2.570 -0.2860 -0.7860  1.9310
 8397SOL    HW226612   3.654   5.528   2.519  1.2355 -0.7018 -1.2726
 8398SOL     OW26613   7.267   2.739   2.546 -0.1786  0.0494  0.4921
 8398SOL    HW126614   7.362   2.736   2.541 -0.0926 -1.4151  2.2439
 8398SOL    HW226615   7.237   2.704   2.462  0.8397 -0.5373  0.3621
 8399SOL     OW26616   0.130   5.414   4.140  0.1999  0.1823 -0.1405
 8399SOL    HW126617   0.148   5.401   4.047  1.3065 -0.4244  0.1406
 8399SOL    HW226618   0.193   5.480   4.169  0.1082  0.0991  0.2660
 8400SOL     OW26619   0.087   2.670   7.148  0.5241 -0.0913  0.6994
 8400SOL    HW126620   0.114   2.712   7.230  2.0177  0.2828  0.0447
 8400SOL    HW226621   0.168   2.639   7.109  0.0512  1.0738 -1.3796
 8401SOL     OW26622   1.233   7.655   2.722  0.0742  0.9141 -0.0240
 8401SOL    HW126623   1.281   7.640   2.804 -2.0991  0.7352  1.2841
 8401SOL    HW226624   1.276   7.731   2.683  2.3807 -0.1447  0.2708
 8402SOL     OW26625   6.260   0.286   2.222  0.0982  0.0397 -0.2305
 8402SOL    HW126626   6.281   0.333   2.303  3.5002 -0.4406 -0.6962
 8402SOL    HW226627   6.269   0.194   2.244 -1.1268 -0.1953 -0.6543
 8403SOL     OW26628   2.105   0.643   3.164  0.2198  0.0312 -0.3522
 8403SOL    HW126629   2.071   0.588   3.094  1.7757  0.4368 -1.4717
 8403SOL    HW226630   2.086   0.733   3.135 -3.0368  0.2334  1.8271
 8404SOL     OW26631   6.667   6.542   4.410 -0.2456  0.5930  0.1181
 8404SOL    HW126632   6.677   6.448   4.399  0.9461  0.7374 -0.1122
 8404SOL    HW226633   6.682   6.578   4.322 -0.4249  1.0205  0.2607
 8405SOL     OW26634   5.631   5.624   3.413 -0.5106 -0.1098  0.1055
 8405SOL    HW126635   5.644   5.530   3.405 -2.7048 -0.3164 -2.6469
 8405SOL    HW226636   5.538   5.634   3.437 -0.2981  1.3593  0.4310
 8406SOL     OW26637   3.251   4.104   1.123  0.0723  0.3626 -0.3924
 8406SOL    HW126638   3.260   4.183   1.070 -0.0010 -0.1212 -1.1284
 8406SOL    HW226639   3.159   4.103   1.151  0.0250  0.4259 -0.5499
 8407SOL     OW26640   5.364   7.971   5.360 -0.8534 -0.0502  1.0876
 8407SOL    HW126641   5.374   7.895   5.302  0.6682  1.3531 -0.5692
 8407SOL    HW226642   5.389   7.938   5.447  1.2738 -1.1014  0.1408
 8408SOL     OW26643   2.064   4.991   4.242  0.5585  0.0068  0.4062
 8408SOL    HW126644   2.009   4.932   4.293  0.3036 -1.2181 -1.2025
 8408SOL    HW226645   2.027   5.078   4.256  0.3946 -0.3021  2.1149
 8409SOL     OW26646   7.965   1.024   3.001 -0.1649 -0.0589  0.6177
 8409SOL    HW126647   7.930   1.101   3.046  0.2887 -0.3965  1.5816
 8409SOL    HW226648   7.962   0.954   3.067 -2.2098 -1.3506 -0.7402
 8410SOL     OW26649   0.492   3.510   3.360 -0.3082 -0.3413 -0.4482
 8410SOL    HW126650   0.561   3.512   3.427 -0.8499  1.2518  0.1034
 8410SOL    HW226651   0.537   3.535   3.279  0.0440 -0.7663 -0.3907
 8411SOL     OW26652   5.104   2.786   0.143  0.0955 -0.6400  0.6875
 8411SOL    HW126653   5.126   2.715   0.084 -0.8502 -1.6321  1.4927
 8411SOL    HW226654   5.111   2.865   0.089 -0.5717 -1.4938 -0.7077
 8412SOL     OW26655   4.190   0.524   2.460 -0.0112  0.3447  0.0941
 8412SOL    HW126656   4.213   0.488   2.546  1.1330 -2.4726 -1.2841
 8412SOL    HW226657   4.094   0.520   2.458  0.0259 -1.5812  0.4724
 8413SOL     OW26658   7.865   4.667   6.499 -0.7601 -0.5005  0.4400
 8413SOL    HW126659   7.954   4.665   6.462 -0.6396 -0.3642  0.7195
 8413SOL    HW226660   7.809   4.694   6.426 -0.4466  0.3578  0.5053
 8414SOL     OW26661   3.631   7.363   5.631 -0.2604  0.1003  0.3412
 8414SOL    HW126662   3.612   7.453   5.657 -0.2870 -0.9692  4.8662
 8414SOL    HW226663   3.546   7.319   5.633 -0.2651 -0.1419 -1.9441
 8415SOL     OW26664   6.453   4.891   1.333  0.1366 -0.4379 -0.1502
 8415SOL    HW126665   6.366   4.868   1.363  0.8939 -2.4956  0.6433
 8415SOL    HW226666   6.509   4.882   1.410  1.2119 -0.1281 -0.8607
 8416SOL     OW26667   7.524   4.419   4.385 -0.0083  0.4800 -0.0431
 8416SOL    HW126668   7.607   4.433   4.431  0.6079 -0.1042 -0.9492
 8416SOL    HW226669   7.550   4.389   4.298 -1.1790 -0.1866 -0.1770
 8417SOL     OW26670   6.123   7.514   1.440 -0.2353 -0.2942 -0.1836
 8417SOL    HW126671   6.120   7.548   1.530  0.0801  1.6692 -0.8866
 8417SOL    HW226672   6.098   7.588   1.385 -0.4490 -1.4739 -1.7454
 8418SOL     OW26673   6.547   4.528   4.189  0.3379 -0.6319 -0.1286
 8418SOL    HW126674   6.482   4.544   4.258  0.9080 -2.2144  0.8269
 8418SOL    HW226675   6.504   4.557   4.109 -0.6397  0.5461  0.7750
 8419SOL     OW26676   1.723   2.599   4.631 -0.1620  0.1643 -0.0849
 8419SOL    HW126677   1.795   2.609   4.693 -0.9308  2.0279  0.5582
 8419SOL    HW226678   1.732   2.509   4.599  0.2850 -0.8782  2.6943
 8420SOL     OW26679   4.955   4.556   2.348  0.0131  0.5122  0.2491
 8420SOL    HW126680   4.926   4.556   2.257 -0.7121  2.0066  0.4495
 8420SOL    HW226681   4.895   4.616   2.392 -0.4069 -1.0932  1.9748
 8421SOL     OW26682   6.935   0.826   3.060  0.1095  0.0136 -0.2763
 8421SOL    HW126683   7.009   0.865   3.105  1.2455 -1.8185 -0.4877
 8421SOL    HW226684   6.971   0.753   3.011 -1.7452 -0.5863 -0.8599
 8422SOL     OW26685   3.368   0.605   7.221  0.4429 -0.0514 -0.5770
 8422SOL    HW126686   3.293   0.621   7.165 -0.5464 -0.6253  0.5368
 8422SOL    HW226687   3.393   0.692   7.252 -1.9800 -0.0362  1.7550
 8423SOL     OW26688   2.407   5.660   4.818  0.3350 -0.1018 -0.4360
 8423SOL    HW126689   2.464   5.710   4.760  0.2756 -0.5154 -0.8469
 8423SOL    HW226690   2.323   5.706   4.815 -0.1880 -1.1093 -2.0371
 8424SOL     OW26691   2.963   5.949   5.374 -0.0212  0.0311 -0.0132
 8424SOL    HW126692   2.908   5.906   5.439 -0.0582  2.0655  1.4053
 8424SOL    HW226693   2.906   6.018   5.337  0.4584 -0.1705 -1.1732
 8425SOL     OW26694   4.870   0.962   5.279 -0.2254  0.1250  0.4200
 8425SOL    HW126695   4.818   0.882   5.278 -0.2020  0.1124 -0.0782
 8425SOL    HW226696   4.806   1.032   5.297 -1.0264  0.4990 -3.1666
 8426SOL     OW26697   2.865   0.300   6.948  0.1144  0.5449 -0.0162
 8426SOL    HW126698   2.798   0.367   6.938 -0.3635  0.0165 -0.3790
 8426SOL    HW226699   2.824   0.219   6.919  0.8937  0.2040 -0.2183
 8427SOL     OW26700   3.633   5.989   0.113 -0.4607  0.1362 -0.2483
 8427SOL    HW126701   3.552   5.942   0.097 -0.0457  0.1017 -2.7126
 8427SOL    HW226702   3.668   6.006   0.026  2.5060 -0.4027  0.7316
 8428SOL     OW26703   3.878   2.595   1.739  1.0634  0.0174  0.1655
 8428SOL    HW126704   3.815   2.641   1.794 -0.0453  1.6222 -2.2858
 8428SOL    HW226705   3.884   2.647   1.660  1.8402 -2.6626 -1.6966
 8429SOL     OW26706   7.852   0.965   6.428 -0.0641 -1.5947 -0.4131
 8429SOL    HW126707   7.925   0.941   6.372 -0.5820 -1.6015 -1.1085
 8429SOL    HW226708   7.839   1.059   6.411 -0.7209 -1.7641 -0.9231
 8430SOL     OW26709   0.504   0.579   2.399  0.4520  0.5995 -0.2059
 8430SOL    HW126710   0.436   0.614   2.456  0.7561 -1.9282  1.8921
 8430SOL    HW226711   0.586   0.606   2.440  0.6783 -0.9227  0.3719
 8431SOL     OW26712   6.519   6.167   0.075  0.0049 -0.1187  0.2364
 8431SOL    HW126713   6.465   6.243   0.100  1.2284  0.7071  0.4617
 8431SOL    HW226714   6.594   6.171   0.134  0.2257 -1.3698  0.0652
 8432SOL     OW26715   1.960   2.608   3.179 -0.1978 -0.0258 -0.3934
 8432SOL    HW126716   1.976   2.513   3.180  0.3383  0.0641  0.1598
 8432SOL    HW226717   1.890   2.619   3.115 -1.7758 -1.0482  1.0367
 8433SOL     OW26718   5.341   7.453   0.081 -0.3244 -0.2726  0.7969
 8433SOL    HW126719   5.298   7.537   0.061  1.2586  0.5714  0.7365
 8433SOL    HW226720   5.413   7.477   0.140  1.8800 -1.1339 -1.3614
 8434SOL     OW26721   4.768   5.795   2.834 -0.0047 -0.1051 -0.0230
 8434SOL    HW126722   4.743   5.787   2.742  1.0577 -0.4166 -0.3051
 8434SOL    HW226723   4.842   5.857   2.832 -0.4819  0.4989  0.7177
 8435SOL     OW26724   3.571   1.431   6.213 -0.3554  0.4571 -0.5767
 8435SOL    HW126725   3.562   1.463   6.302  1.7941 -0.6805  0.1330
 8435SOL    HW226726   3.650   1.473   6.180 -1.0912  0.8232 -1.9646
 8436SOL     OW26727   4.362   0.497   4.520  1.1626 -0.6506 -0.9267
 8436SOL    HW126728   4.425   0.467   4.454  0.2936 -0.9242 -1.6533
 8436SOL    HW226729   4.363   0.593   4.512  2.5124 -0.5573  0.0529
 8437SOL     OW26730   2.174   3.617   6.448 -0.1556  0.8744  0.1196
 8437SOL    HW126731   2.086   3.626   6.484 -0.5123 -0.4569 -0.3565
 8437SOL    HW226732   2.163   3.621   6.353 -0.0582 -1.4929 -0.0602
 8438SOL     OW26733   8.047   6.006   7.193  0.0161  0.1192 -0.2800
 8438SOL    HW126734   7.984   6.028   7.125 -0.0136  1.4010  0.1303
 8438SOL    HW226735   8.076   5.917   7.172 -1.7431 -0.4136 -0.6033
 8439SOL     OW26736   1.912   6.244   3.955  0.2729 -0.2029 -0.0683
 8439SOL    HW126737   1.998   6.234   3.995 -0.6763  1.1654  2.6254
 8439SOL    HW226738   1.923   6.313   3.890  1.3760 -0.6304 -0.3440
 8440SOL     OW26739   5.328   4.768   0.743  0.0629 -0.0127 -0.6517
 8440SOL    HW126740   5.408   4.772   0.691  0.0645  1.5162 -0.5804
 8440SOL    HW226741   5.301   4.676   0.740  1.6721 -0.5001 -0.8893
 8441SOL     OW26742   1.488   2.124   3.864  0.6720  0.2324 -0.1829
 8441SOL    HW126743   1.399   2.094   3.848  0.5591  1.2121 -1.7139
 8441SOL    HW226744   1.488   2.155   3.955 -1.1294  1.9776 -0.6908
 8442SOL     OW26745   4.602   1.069   3.464 -0.1611 -0.0306  0.1799
 8442SOL    HW126746   4.661   1.119   3.520 -1.3363  1.0665  0.4883
 8442SOL    HW226747   4.603   0.981   3.502 -2.5888  1.1228  3.4464
 8443SOL     OW26748   1.332   7.723   6.913 -0.2161 -0.2635  0.0104
 8443SOL    HW126749   1.413   7.672   6.912  0.5519  0.9248 -0.5427
 8443SOL    HW226750   1.338   7.779   6.836 -1.4761  0.0005  0.0848
 8444SOL     OW26751   1.740   5.954   4.916  0.2937 -0.2386 -0.8398
 8444SOL    HW126752   1.755   5.898   4.840 -3.7184 -0.7348 -1.4889
 8444SOL    HW226753   1.773   6.040   4.889 -0.1661 -0.6328 -2.8182
 8445SOL     OW26754   1.920   4.196   1.432 -0.4761 -0.1181 -0.3730
 8445SOL    HW126755   1.854   4.133   1.462 -1.4988  1.6536  1.3494
 8445SOL    HW226756   1.990   4.188   1.496  0.0521 -0.4941 -0.9868
 8446SOL     OW26757   3.452   4.086   6.289 -0.0423 -0.2993 -0.1705
 8446SOL    HW126758   3.536   4.098   6.244  0.3612  0.0182  0.6532
 8446SOL    HW226759   3.395   4.154   6.251  1.1171  1.8798  1.7187
 8447SOL     OW26760   1.126   0.546   4.190 -0.1617  0.0030  0.1578
 8447SOL    HW126761   1.129   0.460   4.149 -3.0551 -0.6245  1.0125
 8447SOL    HW226762   1.203   0.549   4.246  0.7081 -1.4484 -0.8959
 8448SOL     OW26763   1.959   7.034   0.311  0.2372 -0.2524  0.4173
 8448SOL    HW126764   1.874   7.067   0.340 -0.9512 -3.7640  1.4798
 8448SOL    HW226765   1.974   6.957   0.365  2.8950 -1.2518 -1.5279
 8449SOL     OW26766   2.156   7.270   7.809  0.3027  0.0438  0.2886
 8449SOL    HW126767   2.130   7.252   7.900 -0.6340  0.5777  0.1432
 8449SOL    HW226768   2.251   7.265   7.810  0.3457  0.5697  1.4236
 8450SOL     OW26769   8.034   1.715   2.038  0.0784  0.4683 -0.4723
 8450SOL    HW126770   7.948   1.755   2.025 -0.7084 -1.4698 -1.6637
 8450SOL    HW226771   8.022   1.623   2.014  2.4716  0.1224 -0.6338
 8451SOL     OW26772   3.473   0.094   6.027  0.5030 -0.1153 -0.3832
 8451SOL    HW126773   3.423   0.013   6.039  0.0639  0.2358  0.2145
 8451SOL    HW226774   3.554   0.066   5.986  1.6196 -1.2661  2.3898
 8452SOL     OW26775   4.794   3.570   3.643  0.3957 -0.2410  0.3825
 8452SOL    HW126776   4.847   3.495   3.669 -1.7248 -1.9737 -0.0713
 8452SOL    HW226777   4.799   3.571   3.547  0.3004  0.1369  0.3774
 8453SOL     OW26778   6.298   1.034   6.174 -0.3014 -0.1502  0.1474
 8453SOL    HW126779   6.350   1.001   6.247 -0.1300  1.4724  0.7939
 8453SOL    HW226780   6.222   0.975   6.170  0.2405 -0.9251  0.9068
 8454SOL     OW26781   6.295   6.796   5.058 -0.0172  0.1681 -0.4326
 8454SOL    HW126782   6.284   6.709   5.020 -0.1909  0.1089 -0.2451
 8454SOL    HW226783   6.208   6.835   5.053  0.1773  0.5321 -1.0147
 8455SOL     OW26784   6.482   2.732   2.805  0.7190 -0.2572 -0.1944
 8455SOL    HW126785   6.532   2.681   2.740  0.5467  1.3538 -1.6599
 8455SOL    HW226786   6.545   2.749   2.875  0.4815 -3.3872  0.9258
 8456SOL     OW26787   3.099   2.010   1.347  0.0062 -0.0459 -0.2568
 8456SOL    HW126788   3.026   1.976   1.399 -0.2859  0.6120 -0.2288
 8456SOL    HW226789   3.058   2.067   1.282  0.4693  0.0879 -0.4381
 8457SOL     OW26790   1.237   2.725   0.648 -0.3845 -0.3860  0.3116
 8457SOL    HW126791   1.319   2.708   0.602  0.0408  0.2035  0.8393
 8457SOL    HW226792   1.227   2.650   0.706  0.0037 -0.2473  0.5589
 8458SOL     OW26793   8.001   0.345   3.718  0.7275 -0.0578  0.2460
 8458SOL    HW126794   8.015   0.256   3.751  2.8872 -0.1491 -0.7101
 8458SOL    HW226795   8.023   0.340   3.625  1.0697  1.4998  0.2120
 8459SOL     OW26796   7.096   5.349   3.854 -0.1225  0.1061 -0.1134
 8459SOL    HW126797   7.086   5.411   3.926 -0.7326 -1.8902  1.6043
 8459SOL    HW226798   7.094   5.263   3.895 -1.0532 -1.1559 -2.5620
 8460SOL     OW26799   6.586   5.218   7.340  0.2544 -0.0905 -0.4329
 8460SOL    HW126800   6.679   5.239   7.336  0.2977 -0.2951 -0.4971
 8460SOL    HW226801   6.548   5.261   7.263  0.6438 -1.7501 -1.6092
 8461SOL     OW26802   0.527   1.956   3.869  0.3001  0.5721 -0.1119
 8461SOL    HW126803   0.588   1.882   3.869 -0.6938 -0.2963  1.2600
 8461SOL    HW226804   0.584   2.033   3.861  1.8811 -0.0828  2.9342
 8462SOL     OW26805   2.547   2.412   2.929  0.0005  0.0256 -0.2033
 8462SOL    HW126806   2.561   2.476   2.860 -0.1607 -1.0836 -1.2938
 8462SOL    HW226807   2.635   2.392   2.962  0.1413  0.0755 -0.5445
 8463SOL     OW26808   7.207   6.398   7.935 -0.1723 -0.4308  0.2855
 8463SOL    HW126809   7.167   6.386   7.849 -0.9793  1.2890  0.3767
 8463SOL    HW226810   7.137   6.435   7.989 -0.3062 -3.3375  2.3210
 8464SOL     OW26811   4.153   6.393   6.483  0.0964 -0.0495 -0.1835
 8464SOL    HW126812   4.159   6.339   6.405 -1.5575 -1.1813  0.4107
 8464SOL    HW226813   4.060   6.415   6.490 -0.2115 -1.7209  2.5383
 8465SOL     OW26814   5.979   1.045   1.576 -0.3448 -0.4166 -0.3591
 8465SOL    HW126815   5.902   0.989   1.571  0.9808 -2.2046 -2.8125
 8465SOL    HW226816   6.026   1.015   1.655 -2.0584  0.7067  1.1678
 8466SOL     OW26817   4.510   3.251   6.869 -0.0178  0.0363  0.2374
 8466SOL    HW126818   4.538   3.247   6.778 -0.7526  1.3514 -0.0783
 8466SOL    HW226819   4.589   3.279   6.917  0.0243  0.6961 -0.2004
 8467SOL     OW26820   7.472   0.349   2.121  0.3054  0.0442  0.7670
 8467SOL    HW126821   7.489   0.431   2.074  0.5127  0.0953  0.9322
 8467SOL    HW226822   7.394   0.368   2.173 -0.9661 -0.5367 -0.8398
 8468SOL     OW26823   4.564   8.035   1.055 -0.1134 -0.3227  0.5914
 8468SOL    HW126824   4.492   8.097   1.050 -0.3230 -0.5739  0.4838
 8468SOL    HW226825   4.633   8.082   1.101  0.3305  0.5700 -0.9298
 8469SOL     OW26826   4.171   7.362   1.286 -0.0744  0.7106  0.5109
 8469SOL    HW126827   4.147   7.292   1.225  0.7014 -0.8093  1.8342
 8469SOL    HW226828   4.133   7.333   1.370  1.5370  1.1172  1.4120
 8470SOL     OW26829   5.844   1.554   2.579  0.2774 -0.2328  0.3770
 8470SOL    HW126830   5.908   1.582   2.514 -0.3319  1.4630  0.4818
 8470SOL    HW226831   5.891   1.559   2.663  0.5676 -0.8567  0.2605
 8471SOL     OW26832   7.634   5.309   1.716 -0.5176 -0.6939  0.4215
 8471SOL    HW126833   7.546   5.281   1.688  0.1686 -1.7214 -0.8632
 8471SOL    HW226834   7.623   5.400   1.742 -1.3974  0.2881 -2.8460
 8472SOL     OW26835   1.155   7.471   1.693 -0.0046  0.4189  0.3473
 8472SOL    HW126836   1.236   7.472   1.745 -0.7779  0.4382  1.5721
 8472SOL    HW226837   1.177   7.417   1.617  1.0264  0.0532  0.8801
 8473SOL     OW26838   0.293   2.295   3.440  1.2321 -0.2172 -0.3250
 8473SOL    HW126839   0.324   2.307   3.529  0.3427 -1.6987  0.2187
 8473SOL    HW226840   0.243   2.214   3.443 -1.5022  1.3171 -1.4529
 8474SOL     OW26841   2.603   2.242   1.349  0.5881 -0.1675  0.1679
 8474SOL    HW126842   2.596   2.155   1.389  0.8003  0.0914  0.7801
 8474SOL    HW226843   2.534   2.294   1.390  0.7995  0.0978  0.1941
 8475SOL     OW26844   5.001   1.852   7.296  0.3610  0.1685 -0.1188
 8475SOL    HW126845   4.921   1.904   7.305  0.5706  0.4175  0.3832
 8475SOL    HW226846   5.017   1.847   7.202  1.8416  3.3843 -0.1757
 8476SOL     OW26847   6.211   3.615   0.981 -0.7223 -0.1902 -0.1031
 8476SOL    HW126848   6.155   3.679   0.936  0.9509  0.5289 -1.2500
 8476SOL    HW226849   6.225   3.546   0.916 -1.2518 -0.9886  0.6068
 8477SOL     OW26850   2.120   5.364   7.107  0.4599  0.0600  0.0253
 8477SOL    HW126851   2.139   5.295   7.043  1.7406  0.2518  0.1660
 8477SOL    HW226852   2.045   5.411   7.070 -0.5527 -1.4915  0.0170
 8478SOL     OW26853   1.441   5.672   6.580  0.5912  0.4253  0.0708
 8478SOL    HW126854   1.464   5.756   6.540 -1.3577  2.1026  2.2512
 8478SOL    HW226855   1.348   5.662   6.562  0.8930 -1.5734 -0.5725
 8479SOL     OW26856   7.783   6.064   7.917 -0.1738 -0.7125 -0.0765
 8479SOL    HW126857   7.871   6.080   7.883 -0.5914  0.8718 -0.4799
 8479SOL    HW226858   7.771   5.969   7.907  1.9363 -1.1721  1.1436
 8480SOL     OW26859   0.795   7.765   0.581 -0.1747  0.2491 -0.2230
 8480SOL    HW126860   0.710   7.795   0.612 -0.3115  2.1185 -2.2379
 8480SOL    HW226861   0.858   7.823   0.623  0.2443 -1.4364  1.6541
 8481SOL     OW26862   7.038   7.361   6.687 -0.5408 -0.1326 -0.3030
 8481SOL    HW126863   6.968   7.423   6.706  0.8736  2.3661 -2.5927
 8481SOL    HW226864   7.007   7.310   6.613 -0.0359  0.9353 -1.2795
 8482SOL     OW26865   0.522   7.626   1.255 -0.2258  0.2403 -0.5287
 8482SOL    HW126866   0.502   7.713   1.290  0.2201  0.6637 -1.2991
 8482SOL    HW226867   0.594   7.641   1.194 -0.0129 -0.7060 -0.5165
 8483SOL     OW26868   0.823   4.247   2.874 -0.7411 -0.2270  0.5372
 8483SOL    HW126869   0.758   4.284   2.934 -0.1063 -0.7321  1.5664
 8483SOL    HW226870   0.898   4.307   2.879 -0.2062 -0.9266  1.2318
 8484SOL     OW26871   6.799   1.966   0.165  0.4481 -0.5194  0.1944
 8484SOL    HW126872   6.741   1.931   0.233  1.3841 -1.4588  0.5226
 8484SOL    HW226873   6.866   1.899   0.152  2.7745  1.4013  1.3994
 8485SOL     OW26874   1.100   2.898   3.966  0.0844 -0.0654 -0.0392
 8485SOL    HW126875   1.048   2.916   3.888 -0.1773 -3.4391 -0.8075
 8485SOL    HW226876   1.044   2.840   4.019  0.7118  1.2138  2.1288
 8486SOL     OW26877   0.854   0.736   4.988  0.0079 -0.0861  0.0943
 8486SOL    HW126878   0.927   0.708   4.933 -1.8520  0.7568 -3.0975
 8486SOL    HW226879   0.866   0.831   4.998 -0.5063  0.0308 -0.3120
 8487SOL     OW26880   7.674   0.117   2.877  0.1495 -0.0208  0.0064
 8487SOL    HW126881   7.580   0.099   2.875  0.0702  0.4405 -0.6617
 8487SOL    HW226882   7.714   0.032   2.895 -0.3665 -0.3194 -0.2256
 8488SOL     OW26883   6.916   1.604   0.480  0.4308 -0.1984 -0.1878
 8488SOL    HW126884   6.973   1.668   0.522 -1.7342  1.3303  0.6372
 8488SOL    HW226885   6.890   1.544   0.551 -0.5284  0.3335 -0.0659
 8489SOL     OW26886   4.636   3.412   2.417  0.5760 -0.5414  0.3844
 8489SOL    HW126887   4.593   3.327   2.404  1.7097 -0.9936 -0.6026
 8489SOL    HW226888   4.686   3.426   2.337 -0.0870  1.3785  0.2527
 8490SOL     OW26889   1.888   2.483   0.568 -0.1453  0.6321  0.0892
 8490SOL    HW126890   1.961   2.486   0.506 -0.4725 -0.3466 -0.3539
 8490SOL    HW226891   1.880   2.574   0.598 -0.2016  1.2244 -1.5718
 8491SOL     OW26892   5.979   4.619   5.937 -0.7662 -0.1226 -0.3679
 8491SOL    HW126893   5.960   4.555   6.006  0.5005  0.3343  0.4404
 8491SOL    HW226894   5.983   4.566   5.857 -0.9952 -0.8678  0.0991
 8492SOL     OW26895   6.498   3.597   8.041 -0.3242  0.0036  0.1061
 8492SOL    HW126896   6.545   3.650   7.977  1.2712 -0.0270  1.1895
 8492SOL    HW226897   6.438   3.658   8.083  1.4722  1.0177  1.3196
 8493SOL     OW26898   1.843   1.879   6.871 -0.2431 -0.4527 -0.4759
 8493SOL    HW126899   1.904   1.951   6.853  0.9194 -1.6428 -1.4898
 8493SOL    HW226900   1.842   1.873   6.967 -1.6516  1.9321 -0.2663
 8494SOL     OW26901   0.265   3.671   5.602 -0.5563  0.1261 -0.4807
 8494SOL    HW126902   0.207   3.738   5.640  0.2642  0.3522  0.3937
 8494SOL    HW226903   0.272   3.696   5.510 -1.1964  0.5625 -0.4207
 8495SOL     OW26904   0.305   6.837   5.246 -0.8338  0.0343  0.0743
 8495SOL    HW126905   0.230   6.896   5.235  1.6790  3.3297 -1.0364
 8495SOL    HW226906   0.337   6.822   5.157  1.2553  0.8764  0.6146
 8496SOL     OW26907   6.384   5.900   3.315 -0.5548 -0.1877 -0.3026
 8496SOL    HW126908   6.337   5.983   3.304 -1.1638 -0.6749 -1.5531
 8496SOL    HW226909   6.430   5.887   3.232  0.2558 -0.6675  0.2089
 8497SOL     OW26910   6.651   5.537   8.037 -0.0635  0.2359  0.1051
 8497SOL    HW126911   6.705   5.479   8.092  2.0423  0.1846 -1.8479
 8497SOL    HW226912   6.705   5.616   8.027 -0.8953  0.6793 -0.9759
 8498SOL     OW26913   4.282   4.512   7.615  0.1453  0.0794  0.1132
 8498SOL    HW126914   4.372   4.540   7.628 -0.0302  0.9386 -0.4538
 8498SOL    HW226915   4.236   4.592   7.588 -0.8557 -0.2635  0.7383
 8499SOL     OW26916   7.270   5.385   0.550  0.2795 -0.0850  0.5072
 8499SOL    HW126917   7.227   5.301   0.534  0.6709  0.0340 -1.5280
 8499SOL    HW226918   7.258   5.401   0.643 -0.3294 -2.1043  0.8343
 8500SOL     OW26919   4.467   2.364   7.284 -0.3732  0.1806 -1.1378
 8500SOL    HW126920   4.498   2.446   7.320  0.5448 -0.7437  0.2536
 8500SOL    HW226921   4.516   2.353   7.202 -0.5747  1.0372 -1.3813
 8501SOL     OW26922   3.585   2.005   7.660 -0.5740  0.9631 -0.3970
 8501SOL    HW126923   3.515   1.973   7.718  0.8756 -0.2306  0.7691
 8501SOL    HW226924   3.539   2.032   7.580 -2.3427  0.0521  0.2526
 8502SOL     OW26925   3.631   7.570   2.228  0.0900 -0.5713  0.1726
 8502SOL    HW126926   3.543   7.563   2.190 -0.1504  0.0944  0.5840
 8502SOL    HW226927   3.690   7.570   2.153 -0.3928  1.0109 -0.2392
 8503SOL     OW26928   6.800   0.535   3.007 -0.9949 -0.4600 -0.0429
 8503SOL    HW126929   6.822   0.468   2.943 -2.6537 -1.6807  0.6018
 8503SOL    HW226930   6.722   0.502   3.051 -3.1642  2.7823 -1.0648
 8504SOL     OW26931   4.056   0.741   5.639 -0.1740 -0.1995 -0.1341
 8504SOL    HW126932   4.145   0.773   5.656 -0.4581  0.5545 -0.0429
 8504SOL    HW226933   4.012   0.814   5.596 -0.7134 -0.6169 -0.3004
 8505SOL     OW26934   0.672   1.138   2.504 -0.5600  0.4092  0.0587
 8505SOL    HW126935   0.639   1.161   2.591 -1.0107 -2.8419  0.8794
 8505SOL    HW226936   0.757   1.096   2.521 -0.0317  0.9112 -1.2161
 8506SOL     OW26937   6.521   1.620   3.745  0.6133 -0.7222 -0.6162
 8506SOL    HW126938   6.529   1.708   3.707  1.1637 -1.0756 -1.3446
 8506SOL    HW226939   6.431   1.594   3.725  0.3706 -0.2282 -0.1824
 8507SOL     OW26940   6.060   6.105   5.279 -0.6011  0.6863 -0.1025
 8507SOL    HW126941   5.973   6.081   5.246 -0.2104  0.8265 -1.3062
 8507SOL    HW226942   6.063   6.200   5.273 -0.7315  0.7619  0.9301
 8508SOL     OW26943   5.750   6.758   2.203  0.1278 -0.2979  0.0526
 8508SOL    HW126944   5.745   6.752   2.107  1.2334 -0.3647 -0.0133
 8508SOL    HW226945   5.755   6.667   2.232  3.1072 -0.2761 -0.0719
 8509SOL     OW26946   4.997   1.471   0.508  0.4068 -0.2447 -0.4324
 8509SOL    HW126947   5.054   1.500   0.436 -0.6571 -0.0958 -1.2542
 8509SOL    HW226948   5.040   1.393   0.543  0.6217 -0.7281 -1.7003
 8510SOL     OW26949   5.713   5.099   3.870  0.1711 -0.1860 -0.3600
 8510SOL    HW126950   5.715   5.148   3.952  0.6527 -2.3101  0.9606
 8510SOL    HW226951   5.635   5.045   3.876  0.4604 -0.7058 -1.1016
 8511SOL     OW26952   7.505   0.162   7.797  0.0139  0.3728 -0.2038
 8511SOL    HW126953   7.474   0.201   7.879  2.4650 -0.4001  1.1913
 8511SOL    HW226954   7.584   0.211   7.776  1.2115 -1.5191 -0.3103
 8512SOL     OW26955   1.311   0.348   6.223 -0.2640 -0.5283  0.4791
 8512SOL    HW126956   1.362   0.292   6.282 -0.4167  0.4185  1.5437
 8512SOL    HW226957   1.310   0.434   6.266 -1.0748 -0.0160 -0.5145
 8513SOL     OW26958   5.947   1.969   5.472 -0.1021  0.0843  0.4746
 8513SOL    HW126959   5.969   2.027   5.399 -1.2144 -0.8979 -0.6984
 8513SOL    HW226960   5.948   2.026   5.549 -1.0352  1.6460 -0.6079
 8514SOL     OW26961   1.126   5.052   3.945  0.3681  0.5771  0.3079
 8514SOL    HW126962   1.047   5.049   3.999  0.8194  1.1475  1.0250
 8514SOL    HW226963   1.198   5.048   4.008  0.9208  2.7745 -0.1035
 8515SOL     OW26964   0.691   0.140   1.399 -0.2709  0.7681 -0.3694
 8515SOL    HW126965   0.774   0.141   1.353  0.0599  2.2746  0.1788
 8515SOL    HW226966   0.715   0.129   1.491 -0.8873 -1.6414 -0.4302
 8516SOL     OW26967   7.678   4.282   5.192 -0.1084 -0.3485 -0.0127
 8516SOL    HW126968   7.584   4.288   5.207  0.0152  0.6661  0.3927
 8516SOL    HW226969   7.715   4.262   5.278 -0.0903 -2.6508 -0.4891
 8517SOL     OW26970   4.144   1.951   4.091  0.1334 -0.5016  0.0893
 8517SOL    HW126971   4.205   1.963   4.019  1.4854  0.3366  1.3008
 8517SOL    HW226972   4.060   1.983   4.058  1.1431  1.7335 -0.5206
 8518SOL     OW26973   2.540   3.076   7.934 -0.7822  0.1672  0.4005
 8518SOL    HW126974   2.531   3.169   7.911  0.4013  0.0746 -0.5978
 8518SOL    HW226975   2.550   3.032   7.849  0.9093 -0.5795  0.9495
 8519SOL     OW26976   2.589   4.509   8.053 -0.4573  0.3555  0.2139
 8519SOL    HW126977   2.556   4.511   7.963  1.8692  0.3286 -0.7046
 8519SOL    HW226978   2.673   4.555   8.049  0.1547 -0.4921  2.1754
 8520SOL     OW26979   0.361   5.910   6.031  1.0190 -0.1445 -0.0945
 8520SOL    HW126980   0.424   5.865   5.975 -0.9245  0.3190 -2.8622
 8520SOL    HW226981   0.351   5.997   5.993 -1.5454 -0.3438 -0.0689
 8521SOL     OW26982   1.327   6.539   5.391 -0.7255 -0.0216 -0.2196
 8521SOL    HW126983   1.369   6.472   5.337  0.5640 -0.2874  1.0580
 8521SOL    HW226984   1.392   6.610   5.394 -0.2286 -0.4949  1.9187
 8522SOL     OW26985   5.665   5.401   5.239  0.5303  0.0347 -0.2349
 8522SOL    HW126986   5.627   5.408   5.151  1.0058 -1.3278 -0.5648
 8522SOL    HW226987   5.757   5.381   5.223  0.4799 -0.8838  0.5756
 8523SOL     OW26988   7.539   3.000   1.737  0.0879  0.4102  0.0791
 8523SOL    HW126989   7.444   3.011   1.739  0.1625  1.0633  1.7828
 8523SOL    HW226990   7.571   3.048   1.814  1.7616 -0.0970 -0.2478
 8524SOL     OW26991   6.317   0.192   4.465 -1.0318 -0.2632  0.4437
 8524SOL    HW126992   6.292   0.100   4.473  0.1115 -0.7817 -1.2748
 8524SOL    HW226993   6.283   0.219   4.379  1.4459 -0.1203 -0.5798
 8525SOL     OW26994   6.403   7.643   2.959  0.7483 -0.0909  0.4763
 8525SOL    HW126995   6.456   7.588   2.902  2.0165  1.9950 -0.4798
 8525SOL    HW226996   6.356   7.701   2.899  0.2152  0.5250  1.4618
 8526SOL     OW26997   2.832   0.604   3.594 -0.0851  0.5228 -0.4603
 8526SOL    HW126998   2.844   0.696   3.619  0.2612  0.2214  0.5240
 8526SOL    HW226999   2.884   0.555   3.658 -1.4539 -0.4445 -0.0537
 8527SOL     OW27000   0.876   7.147   5.799 -0.2285  0.1542  0.3726
 8527SOL    HW127001   0.830   7.089   5.738  1.8928 -1.4907  0.2139
 8527SOL    HW227002   0.877   7.232   5.754  0.0636 -0.6790 -1.2910
 8528SOL     OW27003   1.366   7.769   0.819  0.1586 -0.3065 -0.6737
 8528SOL    HW127004   1.287   7.773   0.765  0.3559 -1.4909 -1.0633
 8528SOL    HW227005   1.337   7.728   0.900  0.6856 -2.2828 -1.4421
 8529SOL     OW27006   5.331   6.136   2.738 -0.3552  0.0875 -0.1533
 8529SOL    HW127007   5.402   6.104   2.683 -0.3312  0.4416 -0.3299
 8529SOL    HW227008   5.360   6.223   2.766 -0.3067 -0.1410  0.5247
 8530SOL     OW27009   0.837   0.623   2.269  0.2979  0.0607  0.2787
 8530SOL    HW127010   0.823   0.537   2.308  0.9638  0.0606  0.5252
 8530SOL    HW227011   0.863   0.604   2.178 -0.0377  0.0227  0.1879
 8531SOL     OW27012   5.327   4.400   7.652  0.0331  0.1484  0.3683
 8531SOL    HW127013   5.401   4.341   7.637 -1.0939 -0.9563 -1.2728
 8531SOL    HW227014   5.319   4.449   7.569 -0.8352  0.5146  0.6596
 8532SOL     OW27015   4.095   5.998   3.324  0.0560  0.2182 -0.0238
 8532SOL    HW127016   4.101   5.946   3.404  0.1844  0.5883  0.2059
 8532SOL    HW227017   4.001   6.004   3.307  0.0281  0.1416  0.1024
 8533SOL     OW27018   7.750   5.635   0.668  0.1844  0.1594 -0.0599
 8533SOL    HW127019   7.766   5.681   0.750  1.3778  2.7399 -1.5808
 8533SOL    HW227020   7.656   5.618   0.667  0.3834 -1.4919  2.5197
 8534SOL     OW27021   2.571   3.532   4.411 -0.3833  0.1127 -0.1503
 8534SOL    HW127022   2.555   3.443   4.381  0.6286 -0.1668  0.0731
 8534SOL    HW227023   2.645   3.524   4.471 -0.8710  0.9802  0.5949
 8535SOL     OW27024   5.909   7.043   5.522  0.1412 -0.3663 -0.0754
 8535SOL    HW127025   5.947   7.087   5.598 -0.4832  1.3319 -0.6964
 8535SOL    HW227026   5.984   7.021   5.467  0.4824 -0.2465  0.3363
 8536SOL     OW27027   6.957   3.285   4.512  0.1904  1.0195 -0.1374
 8536SOL    HW127028   7.032   3.276   4.571 -0.0118  0.8445  0.0894
 8536SOL    HW227029   6.966   3.212   4.451  0.3291  1.1294 -0.2515
 8537SOL     OW27030   1.401   1.731   5.653  0.0014  0.3260 -0.3050
 8537SOL    HW127031   1.342   1.778   5.594 -0.7232  1.3231  1.1750
 8537SOL    HW227032   1.477   1.788   5.663 -0.2035  0.4949  0.3014
 8538SOL     OW27033   1.719   7.952   7.612 -0.2123  0.4922 -0.0586
 8538SOL    HW127034   1.718   7.857   7.603  1.5003  0.5981 -2.1388
 8538SOL    HW227035   1.714   7.967   7.707  0.0125 -1.6670  0.3498
 8539SOL     OW27036   1.018   3.368   6.718 -0.0069  0.0516  0.2212
 8539SOL    HW127037   0.937   3.389   6.672 -1.2630  0.3140  2.4569
 8539SOL    HW227038   1.006   3.279   6.750  1.0659 -0.3242 -0.3658
 8540SOL     OW27039   5.744   7.843   0.962 -0.1686  0.2798 -0.1419
 8540SOL    HW127040   5.673   7.824   0.901  0.7505  0.4096 -1.2676
 8540SOL    HW227041   5.817   7.871   0.907 -0.4331  4.1729  1.1835
 8541SOL     OW27042   0.516   4.554   2.506 -0.0997  0.4039  0.0626
 8541SOL    HW127043   0.445   4.575   2.445 -0.0718  1.0016  0.2271
 8541SOL    HW227044   0.546   4.467   2.478 -0.4602  0.4240 -0.4176
 8542SOL     OW27045   2.396   3.378   1.094  0.3871  0.0041 -0.2266
 8542SOL    HW127046   2.431   3.352   1.009  2.2105 -0.0410  0.5064
 8542SOL    HW227047   2.420   3.307   1.153 -1.6182 -0.3846  0.2029
 8543SOL     OW27048   7.255   1.176   3.448 -0.1755  0.0503  0.0722
 8543SOL    HW127049   7.161   1.184   3.463 -0.0754 -0.6665  1.1780
 8543SOL    HW227050   7.295   1.244   3.501 -0.0560  0.2917 -0.3202
 8544SOL     OW27051   3.406   1.650   2.144 -0.2957 -0.5552  0.7422
 8544SOL    HW127052   3.387   1.685   2.057 -1.9036 -0.7628  0.9828
 8544SOL    HW227053   3.403   1.555   2.133  1.8647 -0.6555  0.5627
 8545SOL     OW27054   8.054   3.359   7.374  0.0058  0.2347 -0.3839
 8545SOL    HW127055   8.058   3.414   7.296 -1.5413  2.0497  0.7374
 8545SOL    HW227056   8.080   3.417   7.445 -0.2069 -0.9187  0.6656
 8546SOL     OW27057   7.174   0.468   7.956 -0.0142  0.1525  0.8330
 8546SOL    HW127058   7.184   0.532   8.026 -0.1287 -0.3884  1.3563
 8546SOL    HW227059   7.259   0.424   7.951 -0.1938 -0.2227  1.0500
 8547SOL     OW27060   6.410   7.395   1.464 -0.6901  0.4901 -0.2534
 8547SOL    HW127061   6.443   7.319   1.417 -2.8890 -0.5121 -0.2715
 8547SOL    HW227062   6.327   7.416   1.422 -1.0620  1.7097  0.9964
 8548SOL     OW27063   0.604   6.891   3.750 -0.3450  0.2824  0.2599
 8548SOL    HW127064   0.631   6.983   3.751  0.2250  0.1182 -0.1011
 8548SOL    HW227065   0.685   6.841   3.742 -0.6477 -0.2610  0.4855
 8549SOL     OW27066   7.000   0.673   5.155  0.8753 -0.1062 -0.6284
 8549SOL    HW127067   6.913   0.636   5.142 -0.8430  3.0707  0.5223
 8549SOL    HW227068   7.038   0.677   5.068 -1.0668  0.3674 -1.5129
 8550SOL     OW27069   5.244   4.696   3.263 -0.1519  0.2116 -0.4823
 8550SOL    HW127070   5.204   4.745   3.191 -0.5090  0.6741  0.0211
 8550SOL    HW227071   5.237   4.604   3.236 -0.4862  0.3660 -0.9365
 8551SOL     OW27072   2.467   5.882   0.699  0.2477 -0.3351  0.2171
 8551SOL    HW127073   2.531   5.913   0.763 -0.1814  0.4367  0.2804
 8551SOL    HW227074   2.406   5.828   0.750  0.2032 -0.1436  0.3688
 8552SOL     OW27075   0.461   7.256   6.749  0.2856  0.2511  0.1018
 8552SOL    HW127076   0.529   7.319   6.729 -1.4031  2.0881 -0.2048
 8552SOL    HW227077   0.396   7.306   6.799 -1.1726 -1.2124 -0.2317
 8553SOL     OW27078   2.685   0.724   1.097  0.2469 -0.2526 -0.2113
 8553SOL    HW127079   2.768   0.694   1.134  0.5076 -1.9301 -1.9950
 8553SOL    HW227080   2.619   0.694   1.158  0.7428 -1.8302 -0.4124
 8554SOL     OW27081   0.432   3.731   5.198 -0.0707 -0.6086 -0.1014
 8554SOL    HW127082   0.452   3.723   5.104 -0.1189 -0.8263 -0.0921
 8554SOL    HW227083   0.514   3.706   5.242  0.0309 -0.2609 -0.0900
 8555SOL     OW27084   5.492   0.166   0.833 -0.3494 -0.2874  0.2333
 8555SOL    HW127085   5.568   0.167   0.892  1.5674 -0.2329 -2.0433
 8555SOL    HW227086   5.456   0.254   0.840  0.1603 -0.1224  0.9443
 8556SOL     OW27087   5.667   3.718   6.811  0.1915 -0.0690 -0.2644
 8556SOL    HW127088   5.714   3.749   6.733  1.3817  0.6252  0.7024
 8556SOL    HW227089   5.596   3.664   6.776  0.8724 -0.0020 -1.8245
 8557SOL     OW27090   6.267   0.686   4.792 -1.0939 -0.1035  0.1708
 8557SOL    HW127091   6.240   0.604   4.834  0.4704 -0.0528  1.3172
 8557SOL    HW227092   6.353   0.666   4.754  0.2470  1.5231  2.1781
 8558SOL     OW27093   0.090   6.424   6.885  0.0605  0.5284  0.7588
 8558SOL    HW127094   0.157   6.468   6.936 -1.1501  0.3649  2.5715
 8558SOL    HW227095   0.065   6.488   6.818  2.2406  0.4478 -0.2184
 8559SOL     OW27096   5.955   4.346   4.648  0.2807 -0.1350 -0.0256
 8559SOL    HW127097   5.860   4.330   4.648 -0.1043  1.7385  1.5383
 8559SOL    HW227098   5.988   4.293   4.720  0.1847  0.2076  0.2789
 8560SOL     OW27099   3.653   7.513   4.836 -0.8469  0.1588 -0.1908
 8560SOL    HW127100   3.688   7.464   4.910  1.4565 -1.3856 -2.1185
 8560SOL    HW227101   3.714   7.586   4.826 -0.6772 -0.0789 -0.9744
 8561SOL     OW27102   4.821   6.657   0.571  0.3172 -0.5354 -0.1492
 8561SOL    HW127103   4.873   6.718   0.623 -1.4793 -0.0700  1.1861
 8561SOL    HW227104   4.759   6.712   0.523  0.4924 -1.1401 -1.1022
 8562SOL     OW27105   6.052   2.229   3.531  0.2667 -0.5068 -0.2795
 8562SOL    HW127106   6.000   2.195   3.458  0.1802  0.2677 -0.5818
 8562SOL    HW227107   6.138   2.187   3.520 -0.4411 -2.3008  0.6013
 8563SOL     OW27108   5.741   5.659   4.975 -0.2980  0.2659  0.4464
 8563SOL    HW127109   5.793   5.617   4.906 -1.4757  0.3696 -0.5463
 8563SOL    HW227110   5.677   5.593   5.001 -0.8023  0.7216  0.3786
 8564SOL     OW27111   6.781   0.188   2.451 -0.4144 -0.8040  0.1723
 8564SOL    HW127112   6.850   0.253   2.469  0.6667 -2.1529  1.1318
 8564SOL    HW227113   6.793   0.166   2.359 -0.0938 -0.4275  0.1186
 8565SOL     OW27114   1.026   2.190   1.677  0.0717 -0.0987  0.2539
 8565SOL    HW127115   1.066   2.122   1.623  0.3134  0.1327  0.1415
 8565SOL    HW227116   0.967   2.236   1.618  0.2884  0.1135  0.2003
 8566SOL     OW27117   3.958   0.963   6.797  0.3970 -0.2631 -0.5435
 8566SOL    HW127118   3.890   1.012   6.751  0.9915  1.2148  0.0951
 8566SOL    HW227119   4.033   1.023   6.801  1.9306 -2.0046 -1.6323
 8567SOL     OW27120   0.365   4.724   4.037  0.3444  0.2887 -0.1367
 8567SOL    HW127121   0.417   4.756   4.111 -0.5311  1.0368  0.1819
 8567SOL    HW227122   0.359   4.630   4.051  1.9435  0.1141 -0.4104
 8568SOL     OW27123   7.848   0.733   7.582 -0.0832 -0.7378  0.0803
 8568SOL    HW127124   7.817   0.782   7.506  0.3337 -0.0986  0.3150
 8568SOL    HW227125   7.769   0.707   7.628 -0.3932 -1.9655 -1.0732
 8569SOL     OW27126   0.325   3.233   1.539  0.2519 -0.5819  0.0452
 8569SOL    HW127127   0.299   3.168   1.605 -1.2942 -0.0517 -0.0039
 8569SOL    HW227128   0.254   3.296   1.539  1.3794  0.7364 -0.4372
 8570SOL     OW27129   3.539   5.481   7.592 -0.0712 -0.6584 -0.7513
 8570SOL    HW127130   3.623   5.497   7.635 -0.8620  2.6313 -0.1000
 8570SOL    HW227131   3.497   5.415   7.647  1.0060 -0.3348  0.5453
 8571SOL     OW27132   5.162   3.818   5.585  0.1171 -0.3619  0.1230
 8571SOL    HW127133   5.227   3.756   5.616 -2.3095 -2.1758  2.0108
 8571SOL    HW227134   5.144   3.791   5.494  1.5864 -0.1312 -0.2548
 8572SOL     OW27135   4.765   3.754   2.139 -0.2705  0.1860 -0.3557
 8572SOL    HW127136   4.780   3.827   2.198  1.9508 -0.8415  0.4678
 8572SOL    HW227137   4.670   3.751   2.128 -0.8431  0.4303  3.2171
 8573SOL     OW27138   6.029   5.777   0.596 -0.3153  0.2780 -0.4318
 8573SOL    HW127139   5.941   5.743   0.609 -0.2934 -0.1765 -1.3544
 8573SOL    HW227140   6.016   5.857   0.544 -0.1484 -0.1055 -1.0679
 8574SOL     OW27141   1.444   4.337   3.115 -0.1904 -0.0989  0.5515
 8574SOL    HW127142   1.359   4.319   3.073 -0.1085  0.0960  0.2965
 8574SOL    HW227143   1.438   4.295   3.201 -0.4498 -0.3067  0.4343
 8575SOL     OW27144   6.097   3.249   1.116  0.2892 -0.2375  0.2387
 8575SOL    HW127145   6.108   3.154   1.106  1.4217 -0.0299 -0.6737
 8575SOL    HW227146   6.147   3.287   1.044  2.1050  1.1291  2.0984
 8576SOL     OW27147   0.434   1.567   7.013 -0.6873  0.6567 -0.0466
 8576SOL    HW127148   0.478   1.483   7.026 -1.4700  0.3603  0.7855
 8576SOL    HW227149   0.355   1.546   6.964 -0.3122  1.0832 -0.8639
 8577SOL     OW27150   2.231   0.806   0.510  0.0905 -0.7254  0.2727
 8577SOL    HW127151   2.245   0.900   0.523 -3.0137  0.0625 -1.0920
 8577SOL    HW227152   2.279   0.785   0.430 -2.0092  0.6447 -1.4629
 8578SOL     OW27153   5.627   5.896   5.370 -0.0305 -0.3606 -0.8742
 8578SOL    HW127154   5.543   5.933   5.398 -0.6000 -0.8077 -1.9205
 8578SOL    HW227155   5.604   5.836   5.299  1.2372 -0.0047 -1.6156
 8579SOL     OW27156   0.171   5.439   0.045  0.7864 -0.3570  1.1914
 8579SOL    HW127157   0.134   5.510   0.097  0.8535 -0.5765  1.5410
 8579SOL    HW227158   0.098   5.408  -0.009  0.6834 -0.2187  1.2517
 8580SOL     OW27159   5.669   6.668   0.707  0.0518  1.0649 -0.0854
 8580SOL    HW127160   5.658   6.631   0.619 -1.1291 -1.0351  0.8644
 8580SOL    HW227161   5.613   6.745   0.708 -1.4197  0.0384 -0.6276
 8581SOL     OW27162   3.791   7.769   1.305 -0.2902 -0.3960 -0.5824
 8581SOL    HW127163   3.874   7.726   1.324 -0.5677 -1.1675 -1.0763
 8581SOL    HW227164   3.745   7.708   1.248 -0.2541  1.0244 -2.2017
 8582SOL     OW27165   1.864   2.141   7.102  0.0538  0.5504  0.3995
 8582SOL    HW127166   1.893   2.171   7.016  1.2722 -0.3649  0.4716
 8582SOL    HW227167   1.768   2.139   7.095  0.0647  1.8886 -0.4410
 8583SOL     OW27168   6.356   0.744   7.590  0.0594 -0.0936 -0.2488
 8583SOL    HW127169   6.368   0.733   7.684 -0.1282 -0.9777 -0.3152
 8583SOL    HW227170   6.429   0.695   7.551  1.5817  2.2669 -0.5607
 8584SOL     OW27171   1.393   4.299   7.573  0.1401  0.0842 -0.3022
 8584SOL    HW127172   1.397   4.245   7.494  0.1334  0.1544 -0.3511
 8584SOL    HW227173   1.387   4.236   7.645 -0.5325  0.0285 -0.4007
 8585SOL     OW27174   0.338   7.336   7.398 -0.0859  0.4110  0.3442
 8585SOL    HW127175   0.336   7.283   7.477  0.7540 -1.1504 -0.6361
 8585SOL    HW227176   0.430   7.336   7.371  0.4108  4.1869  1.4276
 8586SOL     OW27177   7.293   6.763   2.127 -0.3181  0.3299  0.0367
 8586SOL    HW127178   7.319   6.850   2.096 -0.5146  0.2577 -0.3251
 8586SOL    HW227179   7.368   6.707   2.108  0.5795  0.7831  1.9433
 8587SOL     OW27180   1.794   3.639   6.116 -0.2803 -0.0183  0.2053
 8587SOL    HW127181   1.704   3.673   6.115 -0.0928  0.5223  0.8535
 8587SOL    HW227182   1.838   3.687   6.046  0.2888  2.0264  1.8378
 8588SOL     OW27183   1.321   2.570   2.836 -0.3944  0.1470  0.1106
 8588SOL    HW127184   1.364   2.635   2.891  1.0115 -0.3483 -0.3722
 8588SOL    HW227185   1.344   2.486   2.874  0.1416 -0.1778 -0.8834
 8589SOL     OW27186   1.358   1.102   2.499  0.1317  0.1139  0.7570
 8589SOL    HW127187   1.269   1.137   2.500 -0.1033 -0.3939 -0.4586
 8589SOL    HW227188   1.356   1.033   2.432  1.8114  1.1636 -0.4675
 8590SOL     OW27189   1.594   1.185   0.175  0.1377  0.5998 -0.1376
 8590SOL    HW127190   1.530   1.119   0.203 -0.7145  0.0269 -2.9957
 8590SOL    HW227191   1.673   1.135   0.155  0.5441  0.9100  0.6682
 8591SOL     OW27192   2.395   2.977   2.754  0.3265 -0.1002  0.3382
 8591SOL    HW127193   2.343   2.925   2.693  1.6444 -0.4952 -0.4805
 8591SOL    HW227194   2.340   3.052   2.774 -0.3238 -0.1947 -0.9853
 8592SOL     OW27195   5.363   0.696   2.413 -0.4655 -0.1242 -0.1308
 8592SOL    HW127196   5.455   0.684   2.434 -0.3833  0.1661 -0.3209
 8592SOL    HW227197   5.340   0.780   2.453 -1.0326 -0.8606  1.1833
 8593SOL     OW27198   0.600   1.628   1.176 -0.6765  0.1809  0.3419
 8593SOL    HW127199   0.581   1.543   1.135 -0.2236 -0.1143  0.7257
 8593SOL    HW227200   0.689   1.649   1.149 -0.2145 -0.2186  1.4768
 8594SOL     OW27201   7.853   2.015   6.323 -0.5773 -0.1989 -0.1033
 8594SOL    HW127202   7.931   2.061   6.354 -1.5720  2.1904 -0.9951
 8594SOL    HW227203   7.803   1.996   6.403 -1.6056  3.0888  0.1861
 8595SOL     OW27204   4.209   0.084   0.619  0.8707  0.1940  0.3380
 8595SOL    HW127205   4.273   0.012   0.615  0.7239 -0.1117  2.5243
 8595SOL    HW227206   4.199   0.102   0.712  0.0546  2.3307 -0.1097
 8596SOL     OW27207   4.495   1.848   6.203  0.9341 -0.8308 -0.1407
 8596SOL    HW127208   4.500   1.766   6.155 -0.0878 -0.5588 -0.7523
 8596SOL    HW227209   4.402   1.869   6.205  1.1312  0.0663  0.4378
 8597SOL     OW27210   4.017   6.305   4.706 -0.1069 -0.0220 -0.7349
 8597SOL    HW127211   4.009   6.213   4.679 -1.7815 -0.3357  0.6663
 8597SOL    HW227212   3.952   6.351   4.654 -0.1563  0.1493 -0.5225
 8598SOL     OW27213   2.881   3.446   4.021 -0.1256  0.2568  0.0757
 8598SOL    HW127214   2.832   3.520   4.055 -2.5245 -0.2229 -2.0571
 8598SOL    HW227215   2.835   3.369   4.053  1.0313 -0.2977  0.4589
 8599SOL     OW27216   3.941   0.129   5.947  0.6770  0.4163 -0.1398
 8599SOL    HW127217   3.960   0.170   6.032 -0.4327 -0.2050  0.4328
 8599SOL    HW227218   4.017   0.074   5.930  1.6508  1.7769 -0.3498
 8600SOL     OW27219   1.788   6.711   0.386  0.4452 -0.1075 -0.4717
 8600SOL    HW127220   1.793   6.634   0.443 -0.7971 -0.1737 -0.4157
 8600SOL    HW227221   1.724   6.687   0.319  1.3924  0.2274 -1.5047
 8601SOL     OW27222   1.252   4.438   0.083  0.3003  0.2521 -0.0269
 8601SOL    HW127223   1.232   4.528   0.055  3.0572  0.7663 -0.6523
 8601SOL    HW227224   1.275   4.447   0.176 -0.6996 -0.0626  0.2640
 8602SOL     OW27225   1.368   4.718   5.700 -0.0738  0.4981  0.4736
 8602SOL    HW127226   1.347   4.682   5.786 -1.4082  0.8185  0.3054
 8602SOL    HW227227   1.283   4.746   5.664  0.3224 -0.3773 -1.2860
 8603SOL     OW27228   2.084   4.135   1.910 -0.2545  0.7088  0.0897
 8603SOL    HW127229   2.177   4.151   1.926 -0.2535  0.0074  0.7982
 8603SOL    HW227230   2.066   4.050   1.950 -1.1192  0.6583 -0.3732
 8604SOL     OW27231   0.285   5.396   6.643  0.1636 -0.1569  0.0964
 8604SOL    HW127232   0.283   5.448   6.724 -2.8867  0.8464 -0.4683
 8604SOL    HW227233   0.341   5.445   6.584 -2.2060  2.4216 -0.2363
 8605SOL     OW27234   0.297   4.322   1.681 -0.0098 -0.0766 -0.2378
 8605SOL    HW127235   0.213   4.367   1.681 -0.2358 -0.3024  2.6589
 8605SOL    HW227236   0.275   4.229   1.676 -0.0973 -0.2117  1.7365
 8606SOL     OW27237   5.657   3.391   7.980 -0.2602  0.5665  0.2144
 8606SOL    HW127238   5.680   3.298   7.983  1.0632  0.8340 -0.8556
 8606SOL    HW227239   5.698   3.428   8.058 -0.5994  0.3096  0.5224
 8607SOL     OW27240   5.698   6.697   1.210  0.2624 -0.2740  0.3986
 8607SOL    HW127241   5.789   6.716   1.232  0.1542 -0.1762  0.7749
 8607SOL    HW227242   5.688   6.728   1.120  0.6592 -0.4898  0.2745
 8608SOL     OW27243   4.957   0.068   7.277  0.3400 -0.7245 -0.8551
 8608SOL    HW127244   5.042   0.024   7.281  1.0088  0.5968  0.7574
 8608SOL    HW227245   4.900   0.006   7.231  1.4982 -2.8299  0.3587
 8609SOL     OW27246   4.271   1.124   3.799 -0.3504  0.1017  0.7741
 8609SOL    HW127247   4.360   1.113   3.832  0.3259 -0.7325 -1.1931
 8609SOL    HW227248   4.223   1.047   3.831  0.5221 -1.1510 -0.7766
 8610SOL     OW27249   1.602   1.032   6.221  0.3253  0.0906  0.7400
 8610SOL    HW127250   1.675   1.021   6.160 -1.3220 -0.3974 -1.2756
 8610SOL    HW227251   1.571   0.943   6.237  0.4648  0.2511  2.0062
 8611SOL     OW27252   3.711   7.807   4.261  0.0434 -0.0240  0.0756
 8611SOL    HW127253   3.641   7.856   4.306  1.7885 -0.0366  3.0488
 8611SOL    HW227254   3.774   7.874   4.237  1.0728 -0.4147  1.5365
 8612SOL     OW27255   6.148   7.851   5.702  0.4613  0.2718  0.4665
 8612SOL    HW127256   6.105   7.776   5.661  0.0649  1.3450 -1.1891
 8612SOL    HW227257   6.101   7.864   5.784 -0.0935 -0.7126  0.3184
 8613SOL     OW27258   0.680   2.141   2.552  0.1439 -0.5987 -0.2310
 8613SOL    HW127259   0.701   2.166   2.642 -0.1915  1.5304 -0.7079
 8613SOL    HW227260   0.729   2.202   2.498 -1.4488 -0.3323 -1.4576
 8614SOL     OW27261   4.808   5.847   4.681 -0.4631  0.0832  0.1776
 8614SOL    HW127262   4.898   5.871   4.705 -0.1412  0.9206 -1.6682
 8614SOL    HW227263   4.756   5.870   4.758  0.5697  1.9449  0.3810
 8615SOL     OW27264   1.215   2.476   1.213  0.2376 -0.0460  0.3521
 8615SOL    HW127265   1.234   2.476   1.120  1.2064 -2.7692  0.4787
 8615SOL    HW227266   1.189   2.386   1.233 -1.3594  0.7925  2.4659
 8616SOL     OW27267   0.815   7.485   6.119 -0.1333 -0.1279 -0.0687
 8616SOL    HW127268   0.838   7.578   6.116  0.9500 -0.3889 -0.1039
 8616SOL    HW227269   0.896   7.439   6.097 -0.4871 -1.1030  0.5956
 8617SOL     OW27270   4.647   2.661   4.718 -0.0067  0.2791  0.6194
 8617SOL    HW127271   4.558   2.682   4.690 -0.1538  0.1035  0.9542
 8617SOL    HW227272   4.645   2.667   4.813  0.0492 -0.8486  0.7007
 8618SOL     OW27273   3.517   7.925   3.626 -0.4167  0.4876  0.4688
 8618SOL    HW127274   3.609   7.923   3.651  0.0798 -1.4150 -1.2473
 8618SOL    HW227275   3.517   7.927   3.531 -2.1661  0.5665  0.4231
 8619SOL     OW27276   0.230   4.306   4.890  0.2736 -0.1678 -0.0902
 8619SOL    HW127277   0.315   4.293   4.932  0.8445  2.3916 -0.2575
 8619SOL    HW227278   0.250   4.315   4.797 -0.5036 -1.8148 -0.4503
 8620SOL     OW27279   5.547   0.645   1.852  0.6597 -0.0882  0.4264
 8620SOL    HW127280   5.524   0.642   1.759 -0.4493 -0.2105  0.6901
 8620SOL    HW227281   5.468   0.614   1.897  1.1499  0.0690  1.4169
 8621SOL     OW27282   3.455   1.426   1.528  0.3933  0.1364 -0.4094
 8621SOL    HW127283   3.450   1.467   1.442  0.8632  1.0148 -0.0319
 8621SOL    HW227284   3.365   1.397   1.546  0.2269  0.2449 -1.0505
 8622SOL     OW27285   4.656   2.295   0.608  0.1113 -0.3153 -0.0225
 8622SOL    HW127286   4.702   2.296   0.692  0.3222 -1.6447 -0.0982
 8622SOL    HW227287   4.668   2.383   0.572 -1.9879  1.1086  2.3976
 8623SOL     OW27288   1.950   5.103   2.074 -0.1533  0.0285 -0.5811
 8623SOL    HW127289   1.944   5.193   2.104  0.2604  0.6331 -2.1851
 8623SOL    HW227290   1.879   5.095   2.010 -0.1768 -0.7876 -0.4584
 8624SOL     OW27291   5.936   3.814   0.256  0.5838 -0.1673 -0.3054
 8624SOL    HW127292   5.841   3.809   0.268  0.6420 -1.1680 -0.2337
 8624SOL    HW227293   5.972   3.775   0.335  1.1193  2.2045  0.7207
 8625SOL     OW27294   4.717   3.601   4.419  0.0588  0.5415 -0.0361
 8625SOL    HW127295   4.652   3.596   4.349 -0.9841 -0.5872  0.9667
 8625SOL    HW227296   4.702   3.522   4.471  2.4229  0.0989  0.0781
 8626SOL     OW27297   1.357   0.995   5.852  0.1477 -0.2973  1.0289
 8626SOL    HW127298   1.327   0.930   5.787 -0.6787  1.2982 -0.2560
 8626SOL    HW227299   1.297   0.984   5.926  0.4457 -1.4446  1.1184
 8627SOL     OW27300   3.422   4.518   4.014  0.3464 -0.2713 -0.2250
 8627SOL    HW127301   3.399   4.442   4.067 -0.8724  0.6593  0.6298
 8627SOL    HW227302   3.512   4.539   4.040 -0.7984  1.2685  2.9258
 8628SOL     OW27303   6.344   6.767   3.650 -0.1177  0.0806 -0.5429
 8628SOL    HW127304   6.268   6.798   3.600 -1.1818 -1.5883 -0.0500
 8628SOL    HW227305   6.349   6.827   3.725 -1.5684 -0.3458 -0.0709
 8629SOL     OW27306   1.927   5.810   7.171  0.2327 -0.3076 -0.3206
 8629SOL    HW127307   2.009   5.823   7.123  1.8789 -0.4949  2.2096
 8629SOL    HW227308   1.907   5.718   7.159  0.6907 -0.3787 -0.5683
 8630SOL     OW27309   2.867   6.641   4.674 -0.4689 -0.0845 -0.1663
 8630SOL    HW127310   2.825   6.673   4.594 -0.3527 -0.4075 -0.3606
 8630SOL    HW227311   2.918   6.715   4.706 -2.0953  0.7019  0.7175
 8631SOL     OW27312   6.418   6.466   7.139 -0.0021 -0.0557 -0.0228
 8631SOL    HW127313   6.422   6.381   7.183  0.5881 -0.3897 -0.7137
 8631SOL    HW227314   6.336   6.464   7.090 -0.4753  0.1686  0.7378
 8632SOL     OW27315   2.209   7.237   2.771  0.2750  0.5335  0.2124
 8632SOL    HW127316   2.274   7.175   2.805  0.2560  0.5783  0.3305
 8632SOL    HW227317   2.224   7.238   2.676  1.1753  1.3701  0.3538
 8633SOL     OW27318   7.023   3.027   5.552 -0.3150 -0.5884  0.3020
 8633SOL    HW127319   6.944   3.039   5.500  0.2099  1.6544 -0.0937
 8633SOL    HW227320   7.024   2.934   5.574 -1.4520 -1.2787 -2.2320
 8634SOL     OW27321   5.890   0.513   1.271  0.5251 -0.0811  0.3673
 8634SOL    HW127322   5.851   0.536   1.186 -0.0927 -1.6527  0.1926
 8634SOL    HW227323   5.824   0.542   1.335 -0.2755 -1.3554  0.1487
 8635SOL     OW27324   6.966   1.072   0.881 -0.8634 -0.0541  0.4623
 8635SOL    HW127325   6.881   1.105   0.851 -1.3433 -1.3011  0.3904
 8635SOL    HW227326   6.990   1.130   0.953 -1.2379  0.9989 -0.2361
 8636SOL     OW27327   1.687   8.013   3.625 -0.6606 -0.4410 -0.7331
 8636SOL    HW127328   1.744   8.069   3.677  0.0750 -1.7459 -0.0964
 8636SOL    HW227329   1.719   8.023   3.535 -0.3419 -0.0744 -0.5801
 8637SOL     OW27330   5.238   7.065   7.047 -0.1905 -0.1523 -0.0700
 8637SOL    HW127331   5.225   6.982   7.094  1.1957 -1.5637 -2.0111
 8637SOL    HW227332   5.325   7.057   7.007 -0.7007  1.5378 -1.6876
 8638SOL     OW27333   4.119   7.553   7.266 -0.3913 -0.5970  0.5136
 8638SOL    HW127334   4.081   7.591   7.346  0.4206  0.3433  0.4717
 8638SOL    HW227335   4.119   7.625   7.203 -0.5214 -1.1876 -0.1767
 8639SOL     OW27336   0.740   4.359   6.386 -0.8062 -0.4984  0.1537
 8639SOL    HW127337   0.663   4.329   6.337 -0.9466  1.8174 -1.2028
 8639SOL    HW227338   0.714   4.351   6.478 -3.0935  1.0380 -0.2588
 8640SOL     OW27339   1.624   5.214   2.088 -0.0772 -0.1195  0.3030
 8640SOL    HW127340   1.678   5.164   2.026  0.4654 -0.3196  0.9180
 8640SOL    HW227341   1.630   5.164   2.170 -0.2662  0.4720  0.6852
 8641SOL     OW27342   1.095   1.553   2.479 -0.4009  0.9026  0.3637
 8641SOL    HW127343   1.147   1.629   2.453 -0.7545  1.4973  1.3172
 8641SOL    HW227344   1.113   1.543   2.573 -0.4621 -0.1108  0.2771
 8642SOL     OW27345   1.557   2.906   4.861 -0.4690 -0.1550 -0.6202
 8642SOL    HW127346   1.524   2.832   4.809  0.9570 -0.7407 -0.7334
 8642SOL    HW227347   1.575   2.867   4.947  0.3243  0.0337 -0.6923
 8643SOL     OW27348   3.118   3.399   0.477  0.0946 -0.3605  0.0240
 8643SOL    HW127349   3.087   3.382   0.388  0.0629 -1.3062  0.2027
 8643SOL    HW227350   3.087   3.324   0.528  1.5757 -0.7105  0.4742
 8644SOL     OW27351   0.988   5.531   4.203 -0.1523 -0.4660 -0.2790
 8644SOL    HW127352   1.033   5.612   4.228 -0.8498  0.2802 -1.3268
 8644SOL    HW227353   0.913   5.561   4.150 -1.6841 -1.6615  1.1043
 8645SOL     OW27354   1.144   1.175   7.071  0.2473 -0.4219  0.1320
 8645SOL    HW127355   1.165   1.217   7.154 -0.5012 -0.8715  0.5615
 8645SOL    HW227356   1.155   1.082   7.087  1.9748 -0.4166 -0.8389
 8646SOL     OW27357   5.376   7.425   5.053  0.0374  0.4854 -0.2196
 8646SOL    HW127358   5.298   7.402   5.002  0.0390 -1.2947  0.5049
 8646SOL    HW227359   5.445   7.437   4.988 -0.4537  0.3591 -0.7680
 8647SOL     OW27360   1.997   4.749   7.136 -0.2706 -0.2627 -0.6145
 8647SOL    HW127361   1.923   4.754   7.198 -0.4654 -2.1938 -0.6494
 8647SOL    HW227362   1.956   4.729   7.052  0.1189  1.0674 -1.1466
 8648SOL     OW27363   6.160   1.669   0.965  0.4216  0.3187 -0.0348
 8648SOL    HW127364   6.220   1.734   0.928  1.7647 -0.5253  0.5749
 8648SOL    HW227365   6.211   1.588   0.968 -0.6301 -0.3456  0.8552
 8649SOL     OW27366   1.689   4.275   1.077  0.4442 -0.4856 -0.2747
 8649SOL    HW127367   1.602   4.295   1.041  0.6544  1.4183  0.1721
 8649SOL    HW227368   1.699   4.336   1.150  2.7664  0.4008 -1.2352
 8650SOL     OW27369   3.044   6.639   7.412  0.0944  0.4855  0.7186
 8650SOL    HW127370   3.129   6.659   7.452  0.2224 -1.4815  1.5440
 8650SOL    HW227371   3.061   6.641   7.318  0.6218  1.8281  0.8265
 8651SOL     OW27372   4.448   6.375   3.654 -0.1499  0.2938 -0.5605
 8651SOL    HW127373   4.357   6.399   3.674  0.7638  2.6006  1.2395
 8651SOL    HW227374   4.470   6.429   3.578  0.3769  1.5130  0.4265
 8652SOL     OW27375   2.330   5.701   5.097 -0.3563  0.6321  0.4284
 8652SOL    HW127376   2.340   5.654   5.014  1.2534  1.1571  0.2861
 8652SOL    HW227377   2.350   5.636   5.164  0.5727  0.7601  0.2889
 8653SOL     OW27378   3.676   7.750   3.845 -0.2368  0.0817 -0.2673
 8653SOL    HW127379   3.703   7.841   3.857  2.0931 -0.5862  0.0470
 8653SOL    HW227380   3.684   7.711   3.932 -1.6849 -0.3328 -0.2990
 8654SOL     OW27381   0.721   3.017   2.946  0.7071 -0.3226 -0.0885
 8654SOL    HW127382   0.816   3.029   2.953  0.5255  0.6223  1.1204
 8654SOL    HW227383   0.705   2.932   2.986  1.0692 -0.5705 -0.4660
 8655SOL     OW27384   5.670   6.323   0.644 -0.4049  0.5285 -0.6764
 8655SOL    HW127385   5.665   6.361   0.732 -0.2386 -0.1988 -0.3497
 8655SOL    HW227386   5.742   6.369   0.602  0.4312 -0.0946  0.0513
 8656SOL     OW27387   5.064   3.929   1.465  0.3385  0.1567 -0.5317
 8656SOL    HW127388   5.008   3.887   1.531  1.2709 -0.1255  0.1044
 8656SOL    HW227389   5.067   4.021   1.492  1.5973 -0.1523  0.4983
 8657SOL     OW27390   7.303   1.399   2.324  0.0141  0.1360  0.1068
 8657SOL    HW127391   7.234   1.458   2.355 -0.4448 -0.5423  0.3796
 8657SOL    HW227392   7.309   1.417   2.230  0.0568  0.7978  0.2289
 8658SOL     OW27393   0.748   3.591   0.857  0.0256 -0.2774 -0.4647
 8658SOL    HW127394   0.761   3.518   0.796  1.7177  0.8301 -1.5301
 8658SOL    HW227395   0.676   3.641   0.820  0.6510  0.0557 -1.2732
 8659SOL     OW27396   2.493   0.825   7.500  0.0655  0.2086  0.1801
 8659SOL    HW127397   2.554   0.785   7.438  1.1526  1.2032  0.5607
 8659SOL    HW227398   2.528   0.913   7.514  0.1045 -0.1076  2.5105
 8660SOL     OW27399   6.388   1.934   2.223  0.0069 -0.2277 -0.6857
 8660SOL    HW127400   6.389   1.846   2.260 -0.9429 -0.2235 -0.6363
 8660SOL    HW227401   6.317   1.934   2.160 -1.1133  0.9673  0.5051
 8661SOL     OW27402   0.923   7.119   3.315  0.3834  0.1976 -0.6062
 8661SOL    HW127403   0.913   7.026   3.293 -2.3641 -0.3800  2.3099
 8661SOL    HW227404   0.848   7.161   3.275 -0.2671  0.4938  0.8540
 8662SOL     OW27405   0.064   1.186   6.075 -0.2233 -0.5342  0.2201
 8662SOL    HW127406  -0.004   1.202   6.140 -0.2404 -1.1491  0.3553
 8662SOL    HW227407   0.089   1.274   6.044 -0.1338 -0.2277  1.1380
 8663SOL     OW27408   3.581   4.367   1.724 -0.8226  0.3251 -0.7069
 8663SOL    HW127409   3.567   4.334   1.635  1.1057  1.6788 -1.5928
 8663SOL    HW227410   3.556   4.459   1.719 -1.4801  0.2176  0.3874
 8664SOL     OW27411   0.422   2.082   2.520 -0.1293 -0.6713  0.3310
 8664SOL    HW127412   0.414   1.987   2.531 -0.4998 -0.8387 -1.2405
 8664SOL    HW227413   0.516   2.098   2.515 -0.0761 -1.0045  0.2198
 8665SOL     OW27414   4.735   2.254   6.008  0.4851 -0.0887 -0.7585
 8665SOL    HW127415   4.751   2.336   5.960  1.5670  0.2231  0.0841
 8665SOL    HW227416   4.656   2.272   6.060  0.3640  0.2034 -1.0364
 8666SOL     OW27417   0.724   2.287   2.165 -0.4239 -0.1986  0.5393
 8666SOL    HW127418   0.698   2.377   2.143  1.2163  0.7533  2.2117
 8666SOL    HW227419   0.710   2.238   2.084 -3.3838  1.0545  0.1713
 8667SOL     OW27420   3.952   3.006   3.515 -0.4239  0.4070  0.5289
 8667SOL    HW127421   3.892   3.004   3.440  1.6384  1.1130 -1.2223
 8667SOL    HW227422   3.921   3.079   3.568 -1.9199 -0.0985  0.4072
 8668SOL     OW27423   5.853   1.409   6.945  0.4956 -0.1014 -0.0554
 8668SOL    HW127424   5.930   1.462   6.922  0.0554 -0.0783 -1.5945
 8668SOL    HW227425   5.878   1.319   6.924  0.7078 -0.3366  1.1322
 8669SOL     OW27426   4.022   7.646   1.350  0.2777 -0.1653  0.0516
 8669SOL    HW127427   4.088   7.645   1.280 -0.0815 -1.9142 -0.2926
 8669SOL    HW227428   4.064   7.602   1.423 -0.5923 -1.6530 -0.2963
 8670SOL     OW27429   2.602   0.356   4.127 -0.0075 -0.1885 -0.1992
 8670SOL    HW127430   2.671   0.298   4.160 -0.2593 -0.0921  0.5088
 8670SOL    HW227431   2.532   0.350   4.192  0.5705  2.0894  0.7385
 8671SOL     OW27432   1.514   0.740   0.145 -0.6475 -0.2430  0.4948
 8671SOL    HW127433   1.518   0.683   0.068  0.0224 -0.0197  0.3553
 8671SOL    HW227434   1.604   0.770   0.157 -1.2022  1.9909 -0.3646
 8672SOL     OW27435   3.151   6.401   5.699 -0.1471 -0.2162 -0.0604
 8672SOL    HW127436   3.141   6.491   5.730 -0.0610 -0.1877 -0.1153
 8672SOL    HW227437   3.080   6.389   5.636 -0.6279 -0.4348  0.5087
 8673SOL     OW27438   2.823   3.344   4.723  0.3951  0.6634  0.1674
 8673SOL    HW127439   2.875   3.266   4.703 -0.4748  0.2369 -0.5349
 8673SOL    HW227440   2.863   3.380   4.802  0.3255 -0.9615  0.9924
 8674SOL     OW27441   1.639   1.636   1.543  0.3247  0.1758 -0.3047
 8674SOL    HW127442   1.712   1.687   1.509  1.3362 -0.6103  0.6377
 8674SOL    HW227443   1.677   1.551   1.564 -0.9331 -0.3524 -0.0969
 8675SOL     OW27444   3.419   7.422   5.877 -0.3743  0.2918 -0.4497
 8675SOL    HW127445   3.476   7.393   5.948 -0.0632  0.4302 -0.6377
 8675SOL    HW227446   3.385   7.341   5.839 -1.3162  0.2324  0.4633
 8676SOL     OW27447   1.873   1.796   1.513  0.5107  0.1417  0.3854
 8676SOL    HW127448   1.965   1.819   1.501  0.5178  0.4635  1.0426
 8676SOL    HW227449   1.825   1.872   1.482  0.3843 -0.7717 -1.8351
 8677SOL     OW27450   0.901   5.912   1.003 -0.3159  0.1428  0.1662
 8677SOL    HW127451   0.946   5.828   1.002  0.5654  0.6112 -1.0944
 8677SOL    HW227452   0.929   5.956   0.923 -1.2252  1.4029  0.5048
 8678SOL     OW27453   6.965   0.244   4.830 -0.1931  0.6309  0.6849
 8678SOL    HW127454   6.879   0.245   4.872 -0.6028  0.9479 -0.1274
 8678SOL    HW227455   6.948   0.273   4.740  0.6958  0.2549  0.3810
 8679SOL     OW27456   7.818   4.204   5.408  0.2744 -0.1092 -0.2686
 8679SOL    HW127457   7.891   4.247   5.452  0.6802 -1.0415  0.0042
 8679SOL    HW227458   7.852   4.178   5.323  0.4395 -0.9868  0.0467
 8680SOL     OW27459   3.786   7.459   5.070 -0.0440  1.1323 -0.2849
 8680SOL    HW127460   3.792   7.425   5.159 -0.8116  0.8941 -0.3196
 8680SOL    HW227461   3.759   7.550   5.081 -0.5474  0.9844 -0.2872
 8681SOL     OW27462   0.110   5.448   1.921 -0.3634  0.4318  0.5490
 8681SOL    HW127463   0.150   5.493   1.847 -1.3472  0.1331 -0.1802
 8681SOL    HW227464   0.089   5.518   1.983 -1.1924  0.9067 -0.2468
 8682SOL     OW27465   1.999   1.758   3.271 -0.9552 -0.3401 -0.2466
 8682SOL    HW127466   1.918   1.784   3.228 -0.1403  0.7931 -1.1688
 8682SOL    HW227467   2.066   1.769   3.204 -0.0259 -1.2024  0.5092
 8683SOL     OW27468   2.033   6.038   5.707  0.0990 -0.2696 -0.6108
 8683SOL    HW127469   1.969   6.005   5.770  1.2430 -1.4181 -0.0044
 8683SOL    HW227470   1.985   6.105   5.657 -1.0222  0.2034  1.0186
 8684SOL     OW27471   5.895   3.835   5.672  0.0346 -0.1878 -0.2196
 8684SOL    HW127472   5.936   3.780   5.739 -1.0189 -0.5216  0.1807
 8684SOL    HW227473   5.923   3.924   5.694  1.1089 -0.4695 -0.3954
 8685SOL     OW27474   2.827   4.652   5.072  0.3274  0.6283 -0.6767
 8685SOL    HW127475   2.772   4.643   4.993  1.8901  1.8189 -1.9716
 8685SOL    HW227476   2.916   4.632   5.041  0.9937  1.2539  0.7694
 8686SOL     OW27477   4.693   3.406   4.915 -0.1919  0.4549  0.2849
 8686SOL    HW127478   4.732   3.352   4.846 -2.0933  0.8166 -1.1423
 8686SOL    HW227479   4.731   3.493   4.901  0.7406  0.1410  0.8099
 8687SOL     OW27480   0.827   6.826   2.263  0.2532  0.0974 -0.1715
 8687SOL    HW127481   0.814   6.873   2.180 -0.5590 -0.2815 -0.2732
 8687SOL    HW227482   0.745   6.841   2.311  0.6326  0.1234  0.4641
 8688SOL     OW27483   2.205   4.196   0.766  0.3202 -0.0103  0.4278
 8688SOL    HW127484   2.235   4.236   0.685  0.8940 -2.3959 -0.6311
 8688SOL    HW227485   2.247   4.110   0.768 -2.4245 -1.4834  1.4383
 8689SOL     OW27486   4.369   6.620   4.675  0.7373  0.5319 -0.4140
 8689SOL    HW127487   4.333   6.633   4.587 -2.7195 -1.0605  0.5586
 8689SOL    HW227488   4.312   6.672   4.732 -0.4161 -2.4034  1.3138
 8690SOL     OW27489   4.406   7.978   6.997 -0.2889  0.6391  1.1637
 8690SOL    HW127490   4.472   7.946   6.935 -0.5593  0.4822  0.9570
 8690SOL    HW227491   4.416   8.074   6.995  1.0117  0.5465  2.3273
 8691SOL     OW27492   2.781   3.347   1.965  0.3771 -0.3056  0.2029
 8691SOL    HW127493   2.724   3.279   2.000 -1.0133  0.2296 -0.9193
 8691SOL    HW227494   2.845   3.362   2.034 -1.8764  0.3077  2.3254
 8692SOL     OW27495   1.767   6.581   6.056  0.0070 -0.2271 -0.5678
 8692SOL    HW127496   1.707   6.514   6.022  0.5141 -0.7056 -0.5170
 8692SOL    HW227497   1.726   6.664   6.031 -0.3130 -0.5594 -1.1674
 8693SOL     OW27498   6.150   5.448   3.902  0.0642 -0.0968  0.8386
 8693SOL    HW127499   6.196   5.366   3.881  0.4400 -0.3184  2.3897
 8693SOL    HW227500   6.207   5.517   3.869 -0.6664 -0.4153 -1.2965
 8694SOL     OW27501   2.074   7.470   3.449  0.3835 -0.0132  0.1207
 8694SOL    HW127502   2.018   7.399   3.479  0.3196 -0.4855 -1.0950
 8694SOL    HW227503   2.022   7.550   3.464 -0.9684 -0.4929 -1.7244
 8695SOL     OW27504   3.568   6.898   6.287  0.1109  0.2564 -0.3090
 8695SOL    HW127505   3.610   6.822   6.247 -0.0715 -0.5837  1.0289
 8695SOL    HW227506   3.632   6.969   6.277 -0.0497  0.1610 -2.2882
 8696SOL     OW27507   5.463   3.209   6.930 -0.0730  0.5909 -0.3570
 8696SOL    HW127508   5.424   3.186   7.014 -0.7691  0.5047 -0.6944
 8696SOL    HW227509   5.535   3.268   6.952 -0.0343  0.3023  0.3184
 8697SOL     OW27510   3.531   6.430   0.779  0.2464 -0.1614 -0.2292
 8697SOL    HW127511   3.548   6.426   0.685  2.0522 -0.8447  0.0815
 8697SOL    HW227512   3.556   6.344   0.812  1.0331  0.5149  1.0621
 8698SOL     OW27513   2.516   5.366   0.389  0.1717  0.1975 -0.3249
 8698SOL    HW127514   2.523   5.306   0.464  0.9296  0.4135 -0.2108
 8698SOL    HW227515   2.602   5.362   0.347  0.0103  0.6903 -0.7160
 8699SOL     OW27516   2.493   5.995   1.878 -0.4362  0.5928  0.2488
 8699SOL    HW127517   2.509   6.089   1.889  1.9432  0.3703 -0.7926
 8699SOL    HW227518   2.437   5.989   1.801  1.5115  1.1042 -1.2826
 8700SOL     OW27519   2.762   5.749   7.853 -0.3891 -0.3554  0.1784
 8700SOL    HW127520   2.705   5.683   7.814 -0.0926  1.1933 -3.1813
 8700SOL    HW227521   2.721   5.833   7.831  0.9257  0.7073  1.5239
 8701SOL     OW27522   1.233   7.571   7.850 -0.1457 -0.5300  0.7522
 8701SOL    HW127523   1.190   7.657   7.856  0.3530 -0.3416  1.7572
 8701SOL    HW227524   1.164   7.512   7.821 -1.0100 -0.1682  2.0195
 8702SOL     OW27525   1.655   0.369   4.610  0.2067  0.2709  0.0187
 8702SOL    HW127526   1.605   0.298   4.570 -1.6951  1.3014  0.4463
 8702SOL    HW227527   1.623   0.373   4.700  0.2419  1.6719 -0.0027
 8703SOL     OW27528   7.821   6.162   2.048  0.1175  0.2157 -0.5927
 8703SOL    HW127529   7.898   6.187   2.099 -0.0975  1.3018 -0.7789
 8703SOL    HW227530   7.755   6.140   2.114  0.2658  0.2761 -0.4227
 8704SOL     OW27531   4.029   6.565   4.920  0.2744 -0.1005 -0.2212
 8704SOL    HW127532   4.111   6.576   4.968  0.7929  0.2353 -1.1580
 8704SOL    HW227533   4.043   6.486   4.867 -0.5528 -0.8777  0.6749
 8705SOL     OW27534   6.665   5.584   3.018 -0.2953  0.0433  0.2264
 8705SOL    HW127535   6.634   5.643   2.949 -0.4602  0.4572  0.6518
 8705SOL    HW227536   6.759   5.601   3.023 -0.1281 -0.6015 -0.4759
 8706SOL     OW27537   5.759   1.826   1.683  0.1742  0.0394  0.7053
 8706SOL    HW127538   5.668   1.832   1.657  0.5240 -0.1443 -0.6490
 8706SOL    HW227539   5.808   1.858   1.607  1.2151  0.8683  1.6834
 8707SOL     OW27540   3.813   7.662   5.935  0.3301 -0.0723 -0.3734
 8707SOL    HW127541   3.779   7.679   5.848  1.1438  0.1886 -0.6463
 8707SOL    HW227542   3.753   7.708   5.994 -1.9026 -2.5023 -0.5392
 8708SOL     OW27543   1.006   7.314   3.627 -0.3045 -0.5152 -0.0337
 8708SOL    HW127544   1.005   7.305   3.723 -0.3717 -2.5834 -0.2008
 8708SOL    HW227545   0.920   7.349   3.605 -0.2455  0.0939  0.6486
 8709SOL     OW27546   6.342   0.872   6.629 -0.1528 -0.6285  0.8038
 8709SOL    HW127547   6.325   0.899   6.720  1.0098 -0.5115  1.0016
 8709SOL    HW227548   6.361   0.778   6.635  0.1512 -0.5740  0.7167
 8710SOL     OW27549   1.219   7.691   0.385  0.0111  0.0292 -0.5318
 8710SOL    HW127550   1.310   7.680   0.355 -0.2788  0.6815 -1.6872
 8710SOL    HW227551   1.201   7.784   0.375 -0.2512  0.2294  1.3443
 8711SOL     OW27552   1.690   4.831   8.016  0.3541  0.3492 -0.1985
 8711SOL    HW127553   1.614   4.889   8.016 -0.7944 -1.0935 -0.4142
 8711SOL    HW227554   1.665   4.759   7.958  1.4092 -0.7438  0.6517
 8712SOL     OW27555   4.627   0.733   6.371  0.2194 -0.4948 -0.4325
 8712SOL    HW127556   4.695   0.720   6.437 -0.0321 -0.6540 -0.2042
 8712SOL    HW227557   4.555   0.775   6.418 -0.3811 -1.5763 -0.3577
 8713SOL     OW27558   7.277   5.795   3.887  0.3442  0.6813  0.1312
 8713SOL    HW127559   7.186   5.793   3.917  0.5262 -0.7776  0.6994
 8713SOL    HW227560   7.296   5.704   3.862  1.2529  1.2032 -1.2425
 8714SOL     OW27561   7.193   0.098   4.805 -0.2545 -0.0676  0.5478
 8714SOL    HW127562   7.274   0.115   4.852  1.7904  1.5644 -3.1621
 8714SOL    HW227563   7.129   0.156   4.846  1.7974  2.4274  0.4513
 8715SOL     OW27564   7.858   2.792   5.262 -0.1614 -0.0891  0.0665
 8715SOL    HW127565   7.872   2.703   5.232  0.6400 -0.1589  0.6251
 8715SOL    HW227566   7.770   2.814   5.231  0.4835 -0.2664 -2.0283
 8716SOL     OW27567   3.189   5.611   2.759 -0.5385  0.0794  0.3175
 8716SOL    HW127568   3.136   5.560   2.820 -0.8737 -0.8647 -0.7264
 8716SOL    HW227569   3.245   5.546   2.717  2.1279  1.1116  1.9670
 8717SOL     OW27570   2.257   3.077   3.917  0.5426  0.1848 -0.2234
 8717SOL    HW127571   2.172   3.064   3.958  0.1302  1.9604 -0.4107
 8717SOL    HW227572   2.243   3.057   3.824  0.4770 -0.0842 -0.1547
 8718SOL     OW27573   3.052   1.980   0.078  0.0483  0.2176  0.1793
 8718SOL    HW127574   3.125   2.032   0.113 -2.1532  1.0316  4.2552
 8718SOL    HW227575   3.001   2.042   0.025 -0.1668  1.0549  1.3135
 8719SOL     OW27576   6.023   7.793   5.237 -0.0544 -0.0959  0.5920
 8719SOL    HW127577   5.984   7.879   5.224 -0.0003 -0.3108 -1.1961
 8719SOL    HW227578   6.117   7.807   5.226 -0.0543 -0.3999  0.1956
 8720SOL     OW27579   1.549   0.732   1.701  0.7457  0.0616 -0.1175
 8720SOL    HW127580   1.547   0.783   1.621  0.3781  0.4916  0.1607
 8720SOL    HW227581   1.461   0.693   1.708  0.0456  1.7411  1.1539
 8721SOL     OW27582   5.895   2.393   8.051 -0.2658  0.6540 -0.0344
 8721SOL    HW127583   5.963   2.435   7.999  0.5413 -1.2729 -0.6223
 8721SOL    HW227584   5.815   2.441   8.028  0.0915  0.0582 -2.9048
 8722SOL     OW27585   6.710   7.460   5.188  0.1085 -0.1322 -0.2428
 8722SOL    HW127586   6.726   7.366   5.198 -1.4373 -0.2737  1.6396
 8722SOL    HW227587   6.737   7.498   5.272  0.7878  1.1311 -1.0090
 8723SOL     OW27588   5.791   6.296   5.366 -0.1362 -0.3298  0.7066
 8723SOL    HW127589   5.707   6.270   5.402 -0.8852  0.0879 -0.6803
 8723SOL    HW227590   5.804   6.239   5.290  0.1372  0.5452  0.0678
 8724SOL     OW27591   6.233   6.764   0.275  0.1193  0.0552 -0.4369
 8724SOL    HW127592   6.179   6.687   0.259 -1.0599  0.8929 -0.6135
 8724SOL    HW227593   6.261   6.756   0.366 -1.4773  0.3029  0.0960
 8725SOL     OW27594   0.799   2.868   6.212  0.7934 -0.3107 -0.0326
 8725SOL    HW127595   0.876   2.906   6.171  1.7864 -1.9145  0.2476
 8725SOL    HW227596   0.808   2.888   6.305  1.4089 -1.3391  0.1397
 8726SOL     OW27597   3.251   8.004   3.069  0.2303  0.6085  0.4256
 8726SOL    HW127598   3.184   8.017   3.136  0.8280  0.8945  0.9766
 8726SOL    HW227599   3.202   8.003   2.987 -0.5272  0.1354  0.8668
 8727SOL     OW27600   6.089   0.100   1.743 -0.3632 -0.0761  0.1179
 8727SOL    HW127601   6.146   0.135   1.811  1.4525 -1.5549 -0.5445
 8727SOL    HW227602   6.064   0.013   1.775 -0.9091 -0.1036 -0.3565
 8728SOL     OW27603   6.645   2.336   5.804 -0.0161 -0.3302  0.2174
 8728SOL    HW127604   6.720   2.383   5.841  1.1095 -2.3084  0.6100
 8728SOL    HW227605   6.612   2.283   5.877  1.6154 -3.5398 -1.1690
 8729SOL     OW27606   3.282   6.468   1.861 -0.3708  0.6034  0.4219
 8729SOL    HW127607   3.244   6.502   1.779 -0.0765  3.5437  1.3949
 8729SOL    HW227608   3.314   6.545   1.906  4.3948 -1.3351  0.9615
 8730SOL     OW27609   1.164   2.525   6.551 -0.0551 -0.1888 -0.1544
 8730SOL    HW127610   1.211   2.596   6.507 -1.4857  1.0259  0.1769
 8730SOL    HW227611   1.222   2.450   6.544  0.7151  0.5136 -2.2098
 8731SOL     OW27612   4.871   4.520   1.094  0.1868 -0.0896 -0.4158
 8731SOL    HW127613   4.904   4.600   1.053 -1.8338  0.1470 -1.7346
 8731SOL    HW227614   4.866   4.456   1.023  0.7317 -1.0658  0.3956
 8732SOL     OW27615   6.282   5.304   2.063 -0.1597 -0.0080 -0.7065
 8732SOL    HW127616   6.266   5.328   2.154 -2.4221  0.3862 -1.1404
 8732SOL    HW227617   6.279   5.387   2.015  0.0782 -0.3059 -1.2469
 8733SOL     OW27618   4.535   4.458   2.413  0.9353 -0.7238  0.1384
 8733SOL    HW127619   4.561   4.543   2.446  1.5276 -0.5549 -0.7462
 8733SOL    HW227620   4.471   4.426   2.477  0.8338  0.3014  0.5597
 8734SOL     OW27621   2.128   0.427   5.503 -0.2073  0.0491 -0.2206
 8734SOL    HW127622   2.043   0.472   5.499  0.0722  0.9439  2.1960
 8734SOL    HW227623   2.137   0.385   5.418 -3.0104  0.0655 -0.6222
 8735SOL     OW27624   7.530   5.374   6.909  0.4510 -0.6830 -0.0582
 8735SOL    HW127625   7.584   5.451   6.927 -3.7535  2.3178  1.0355
 8735SOL    HW227626   7.507   5.382   6.816  1.0607 -1.4444 -0.2880
 8736SOL     OW27627   4.542   1.878   0.116 -0.1706 -0.4194  0.4829
 8736SOL    HW127628   4.542   1.798   0.062  1.0645  1.0762 -1.9477
 8736SOL    HW227629   4.457   1.918   0.100  0.2336  0.0793 -0.5743
 8737SOL     OW27630   4.610   2.163   2.975 -0.1932 -0.2855 -0.3827
 8737SOL    HW127631   4.593   2.257   2.979  0.3020 -0.2263  0.6219
 8737SOL    HW227632   4.563   2.127   3.051 -2.1822 -1.1641 -1.9168
 8738SOL     OW27633   1.915   5.468   2.794 -0.1465  0.9733 -0.3834
 8738SOL    HW127634   1.956   5.514   2.868 -1.1571  0.1609  0.7315
 8738SOL    HW227635   1.931   5.375   2.813 -0.9265  0.7332 -0.8713
 8739SOL     OW27636   5.513   4.719   7.693 -0.1298  0.4897 -0.6403
 8739SOL    HW127637   5.519   4.799   7.745 -0.5120 -0.3739  0.7880
 8739SOL    HW227638   5.422   4.690   7.705  0.3952 -0.9487  0.1225
 8740SOL     OW27639   3.827   2.220   1.665  0.2627  0.1197 -0.5536
 8740SOL    HW127640   3.904   2.204   1.610 -0.4048  0.1221 -1.5184
 8740SOL    HW227641   3.837   2.311   1.693  1.8332 -0.5653  1.3504
 8741SOL     OW27642   0.523   4.182   7.197 -0.6764 -0.0279  0.2182
 8741SOL    HW127643   0.542   4.221   7.112 -3.3892  0.8153 -0.0845
 8741SOL    HW227644   0.517   4.089   7.180  1.5074 -0.2057  0.0932
 8742SOL     OW27645   7.782   1.497   5.911 -0.0069 -0.0342  0.4792
 8742SOL    HW127646   7.692   1.470   5.892 -0.1246  0.0216  0.9491
 8742SOL    HW227647   7.835   1.452   5.844 -0.3233 -0.4983  0.5369
 8743SOL     OW27648   8.037   4.820   1.413 -0.1735 -0.0342 -0.4049
 8743SOL    HW127649   7.999   4.836   1.500  0.5656 -0.5121  0.0171
 8743SOL    HW227650   8.044   4.907   1.374 -0.2764  0.2137  0.1188
 8744SOL     OW27651   0.977   0.629   1.475 -0.4333  0.2294 -0.3761
 8744SOL    HW127652   0.937   0.714   1.493  1.4097  0.8922  0.9501
 8744SOL    HW227653   0.928   0.567   1.530 -0.4492  0.8225  0.2957
 8745SOL     OW27654   6.236   2.153   6.648 -0.4068  0.5919 -0.4659
 8745SOL    HW127655   6.304   2.089   6.669  0.6337  1.7073 -0.2984
 8745SOL    HW227656   6.185   2.113   6.578  0.8621  0.0028 -1.0857
 8746SOL     OW27657   0.148   0.981   0.303  0.2160 -0.2520  0.2122
 8746SOL    HW127658   0.169   0.950   0.391  0.7969 -1.3469 -0.2853
 8746SOL    HW227659   0.221   1.039   0.279 -0.3500  0.7023  0.7470
 8747SOL     OW27660   4.233   6.513   5.387 -0.4620 -0.0983 -0.0020
 8747SOL    HW127661   4.265   6.536   5.300 -2.8901  2.6163 -0.3311
 8747SOL    HW227662   4.164   6.449   5.371 -0.9351  0.4293 -0.1161
 8748SOL     OW27663   1.817   3.436   2.085 -0.1204  0.3126 -0.6340
 8748SOL    HW127664   1.911   3.436   2.100 -0.1019 -1.1464 -0.5905
 8748SOL    HW227665   1.783   3.500   2.147  0.5922 -1.0529  1.2749
 8749SOL     OW27666   5.022   1.339   2.732 -0.0108 -0.0985 -0.2120
 8749SOL    HW127667   5.110   1.305   2.712  0.5947  1.7199 -0.8497
 8749SOL    HW227668   4.966   1.301   2.665  0.3598 -0.9442 -0.0566
 8750SOL     OW27669   3.962   0.700   6.789 -0.1706  0.3537 -0.2648
 8750SOL    HW127670   3.957   0.796   6.798 -1.6346  0.0901  3.0881
 8750SOL    HW227671   4.005   0.670   6.869 -1.2400 -1.8818 -0.4561
 8751SOL     OW27672   7.176   6.656   5.216  0.1403 -0.2219  0.1476
 8751SOL    HW127673   7.259   6.692   5.184  0.8520 -0.0109  2.0622
 8751SOL    HW227674   7.174   6.566   5.183  0.1942  0.3391 -1.4828
 8752SOL     OW27675   4.759   4.198   2.870 -0.6401 -0.1336 -0.0161
 8752SOL    HW127676   4.681   4.195   2.925  0.1695 -0.5222  1.1504
 8752SOL    HW227677   4.729   4.168   2.784 -1.8746  0.2342  0.2682
 8753SOL     OW27678   1.541   2.012   2.642 -0.2453 -0.4282 -0.6111
 8753SOL    HW127679   1.623   1.969   2.666 -0.9734 -1.6348 -0.1945
 8753SOL    HW227680   1.483   1.940   2.618 -1.6494  0.2758  0.5391
 8754SOL     OW27681   1.112   7.862   6.714  0.0250 -0.6067  0.0183
 8754SOL    HW127682   1.111   7.788   6.775 -0.3523 -1.0392 -0.4989
 8754SOL    HW227683   1.019   7.879   6.697  0.1251 -1.1305 -1.1794
 8755SOL     OW27684   1.457   6.896   2.250  0.4804 -0.6440 -1.1259
 8755SOL    HW127685   1.389   6.862   2.308  1.4914  0.0576  0.5343
 8755SOL    HW227686   1.528   6.834   2.257  1.2823  0.3364 -0.2032
 8756SOL     OW27687   1.566   0.199   0.559  0.0331  0.2433 -0.0488
 8756SOL    HW127688   1.529   0.111   0.552  1.4842 -0.3549 -0.6530
 8756SOL    HW227689   1.553   0.237   0.472  1.5978 -0.3248 -0.5715
 8757SOL     OW27690   0.155   4.525   5.151 -0.3187  0.4714 -0.4239
 8757SOL    HW127691   0.210   4.570   5.087 -0.5744 -0.8156 -1.5782
 8757SOL    HW227692   0.089   4.480   5.099 -0.7471 -0.3297  0.7687
 8758SOL     OW27693   3.866   1.740   5.044 -0.6399  0.2708 -0.5389
 8758SOL    HW127694   3.952   1.705   5.067 -0.1828 -0.4795 -3.0474
 8758SOL    HW227695   3.805   1.669   5.067 -0.4737  0.3435  0.1577
 8759SOL     OW27696   6.181   3.952   7.979 -0.0110 -0.1508  0.2484
 8759SOL    HW127697   6.172   4.023   7.915 -0.0399  1.0843  1.5568
 8759SOL    HW227698   6.155   3.873   7.932  2.3297  0.2749 -1.9988
 8760SOL     OW27699   2.161   5.051   6.422  0.3451  0.3739  0.5832
 8760SOL    HW127700   2.212   4.980   6.383  0.7176  0.8747  0.1522
 8760SOL    HW227701   2.194   5.056   6.512  1.9402  1.4858 -0.0219
 8761SOL     OW27702   3.285   4.248   6.635  0.2635 -0.8059 -0.3581
 8761SOL    HW127703   3.343   4.175   6.615  1.0974 -0.1448 -0.4566
 8761SOL    HW227704   3.265   4.287   6.549  1.2822  0.1358 -0.1961
 8762SOL     OW27705   4.906   0.373   2.896 -0.1213 -0.0202  0.3074
 8762SOL    HW127706   4.902   0.277   2.899 -1.1565 -0.0411 -0.6965
 8762SOL    HW227707   4.919   0.393   2.803  0.0113  0.8112  0.4956
 8763SOL     OW27708   6.890   0.227   7.864  0.5207 -0.4188  0.1306
 8763SOL    HW127709   6.899   0.170   7.941 -0.2171  0.4265  0.8529
 8763SOL    HW227710   6.958   0.195   7.804 -0.3051 -2.5167  0.2182
 8764SOL     OW27711   7.088   4.679   3.660 -0.3592  0.0600 -0.1064
 8764SOL    HW127712   7.147   4.744   3.623  0.2229 -0.3946  0.0025
 8764SOL    HW227713   7.112   4.674   3.752 -1.5727  0.9383  0.2749
 8765SOL     OW27714   2.112   0.565   2.886 -0.2122  0.0124 -0.5716
 8765SOL    HW127715   2.122   0.504   2.813  1.1265 -1.8333  1.0577
 8765SOL    HW227716   2.044   0.626   2.857  0.6141 -0.3138 -3.5218
 8766SOL     OW27717   1.458   2.654   3.681 -0.4309 -0.0703 -0.5145
 8766SOL    HW127718   1.461   2.599   3.603 -1.0763 -0.9202  0.0304
 8766SOL    HW227719   1.365   2.656   3.704 -0.2456  0.1722  0.2256
 8767SOL     OW27720   4.165   2.037   5.888 -0.3342 -0.5968  0.2060
 8767SOL    HW127721   4.148   2.060   5.979 -1.0209  2.1981 -0.5421
 8767SOL    HW227722   4.240   1.977   5.892 -0.4946 -0.7233  2.5893
 8768SOL     OW27723   6.393   6.513   5.029 -0.0606  0.1806 -0.0781
 8768SOL    HW127724   6.444   6.433   5.044  2.0885  1.5042  0.0988
 8768SOL    HW227725   6.418   6.542   4.941  1.5937  2.2178  0.9652
 8769SOL     OW27726   6.379   1.120   2.017  0.6061 -0.2758  0.1458
 8769SOL    HW127727   6.350   1.030   2.036  1.0235 -0.3090  0.6376
 8769SOL    HW227728   6.302   1.174   2.034  0.5636 -0.4620  0.5579
 8770SOL     OW27729   7.470   4.256   2.295  0.6101  0.1309  0.7775
 8770SOL    HW127730   7.529   4.289   2.362  0.8161  0.0319  0.6456
 8770SOL    HW227731   7.466   4.162   2.310 -0.2874  0.2600  1.4000
 8771SOL     OW27732   1.124   0.366   6.989 -0.2521 -0.2553 -0.3671
 8771SOL    HW127733   1.118   0.303   7.061  0.5439  0.3387  0.2363
 8771SOL    HW227734   1.037   0.365   6.949 -0.8187 -0.3465  0.8203
 8772SOL     OW27735   3.651   2.080   2.410 -0.4292  0.4918 -0.1899
 8772SOL    HW127736   3.655   2.147   2.478  0.3299  0.0885  0.1817
 8772SOL    HW227737   3.737   2.082   2.369 -0.2830 -0.4556  0.0403
 8773SOL     OW27738   2.851   6.084   2.798 -0.5002 -0.3181 -0.0712
 8773SOL    HW127739   2.930   6.131   2.824 -1.6093  0.6364  1.7244
 8773SOL    HW227740   2.884   5.999   2.767  1.1635 -0.4539  1.8498
 8774SOL     OW27741   0.707   0.953   6.997  0.4419 -0.1350  0.5159
 8774SOL    HW127742   0.702   0.871   7.046 -0.1917  0.1063  0.8613
 8774SOL    HW227743   0.684   0.927   6.907  0.4158 -0.3656  0.5866
 8775SOL     OW27744   6.633   7.233   7.972 -0.8887  0.3602  0.1244
 8775SOL    HW127745   6.551   7.281   7.972 -0.2219  1.5232 -0.2372
 8775SOL    HW227746   6.668   7.243   7.884  0.7470  1.8624  0.8807
 8776SOL     OW27747   7.683   6.027   5.301 -0.1503  0.0865 -0.9019
 8776SOL    HW127748   7.707   5.969   5.230  0.8285 -0.3380 -0.2533
 8776SOL    HW227749   7.602   5.991   5.336 -0.7390  0.4060 -1.8969
 8777SOL     OW27750   5.277   5.820   4.325  0.2200 -0.2440 -0.0299
 8777SOL    HW127751   5.214   5.769   4.377 -0.0067 -1.1654 -1.1594
 8777SOL    HW227752   5.257   5.797   4.234  0.7066  1.2056 -0.5330
 8778SOL     OW27753   1.494   6.517   2.067 -0.2331  0.3812  0.3950
 8778SOL    HW127754   1.532   6.596   2.104  0.3835  0.1157  0.3511
 8778SOL    HW227755   1.569   6.460   2.051 -0.5742  0.1610 -0.4659
 8779SOL     OW27756   5.688   0.568   7.731  0.1596 -0.5715  0.3142
 8779SOL    HW127757   5.739   0.534   7.804 -0.6317  0.8294  1.5870
 8779SOL    HW227758   5.603   0.525   7.739 -0.2299  0.2513  0.8189
 8780SOL     OW27759   7.660   5.119   2.710 -0.0250  0.0188 -0.0324
 8780SOL    HW127760   7.570   5.098   2.737  0.1111 -1.4102 -0.5891
 8780SOL    HW227761   7.666   5.085   2.621  1.5911 -1.4968  0.6085
 8781SOL     OW27762   7.816   7.735   5.625  0.4272  0.2587 -0.0001
 8781SOL    HW127763   7.791   7.826   5.645  2.4636  1.1329 -1.1321
 8781SOL    HW227764   7.812   7.730   5.530  1.0493 -0.6309  0.0167
 8782SOL     OW27765   6.125   4.369   7.675  0.1935  0.3209  0.0379
 8782SOL    HW127766   6.039   4.406   7.691  0.5273  1.6105 -0.9728
 8782SOL    HW227767   6.169   4.434   7.620  1.8085 -0.2984  0.5350
 8783SOL     OW27768   5.893   3.429   5.392 -0.2628 -0.6234 -0.5297
 8783SOL    HW127769   5.898   3.415   5.487 -0.5903 -0.1255 -0.4369
 8783SOL    HW227770   5.941   3.355   5.355  1.0021 -0.1520  0.0738
 8784SOL     OW27771   7.244   6.998   6.473  0.3692 -0.8491 -0.4330
 8784SOL    HW127772   7.284   6.980   6.558  1.1604 -0.7600 -0.7745
 8784SOL    HW227773   7.157   6.959   6.478  0.1315 -0.2158  0.6761
 8785SOL     OW27774   6.229   0.390   2.945  0.1926  0.4045  0.3613
 8785SOL    HW127775   6.230   0.410   3.039 -0.1664  0.8760  0.2677
 8785SOL    HW227776   6.317   0.357   2.927  0.2114  0.1424  0.8988
 8786SOL     OW27777   2.444   7.462   6.773  0.5419 -0.2967 -0.1544
 8786SOL    HW127778   2.538   7.471   6.764  0.7871  0.8455  2.6413
 8786SOL    HW227779   2.412   7.448   6.683  3.2664 -0.1948 -1.2183
 8787SOL     OW27780   0.687   4.722   6.952 -0.0681  0.0972 -0.2395
 8787SOL    HW127781   0.695   4.783   6.879 -0.3355  2.7296  1.7900
 8787SOL    HW227782   0.593   4.714   6.967 -0.0515 -1.0398 -0.5744
 8788SOL     OW27783   7.960   1.326   4.761  0.2817  0.2462  0.6161
 8788SOL    HW127784   7.926   1.286   4.842 -0.2133  0.7227  0.6565
 8788SOL    HW227785   7.887   1.321   4.700  0.6221 -0.0150  0.2304
 8789SOL     OW27786   2.496   6.272   0.936 -0.9088  0.1659  0.0206
 8789SOL    HW127787   2.528   6.290   1.024 -0.7108  1.3432 -0.2808
 8789SOL    HW227788   2.544   6.194   0.908 -0.4645  0.1981  0.6805
 8790SOL     OW27789   0.850   7.253   1.349  0.1803 -0.2715  0.2208
 8790SOL    HW127790   0.830   7.344   1.374 -0.9427 -0.6828  0.9156
 8790SOL    HW227791   0.935   7.258   1.307  0.8977  0.8930  1.7021
 8791SOL     OW27792   1.360   1.000   7.274  0.0738 -0.0683 -0.2693
 8791SOL    HW127793   1.306   0.952   7.212 -0.4909 -1.5169  1.2535
 8791SOL    HW227794   1.438   0.946   7.285  0.4452  0.4786 -0.1781
 8792SOL     OW27795   6.451   1.952   4.517  0.4076  0.0088  0.1226
 8792SOL    HW127796   6.483   2.022   4.460 -0.8495 -1.4440 -2.5653
 8792SOL    HW227797   6.361   1.976   4.536  0.6565  0.2068  1.1348
 8793SOL     OW27798   5.641   4.513   1.777 -0.3645 -0.3787 -0.1907
 8793SOL    HW127799   5.623   4.601   1.746 -1.0376  0.1025  1.4827
 8793SOL    HW227800   5.666   4.524   1.869  0.6158 -1.8310 -0.2464
 8794SOL     OW27801   0.090   0.676   4.549 -0.4578 -0.4952  0.2601
 8794SOL    HW127802   0.066   0.585   4.533 -0.8759 -0.3077 -0.2265
 8794SOL    HW227803   0.009   0.717   4.581 -0.4320 -0.1687 -0.0821
 8795SOL     OW27804   6.257   7.992   4.492 -0.3087 -0.3148  0.0346
 8795SOL    HW127805   6.317   7.921   4.517  0.4185  0.4649  0.5257
 8795SOL    HW227806   6.190   7.991   4.561 -1.7567 -2.1502 -1.2765
 8796SOL     OW27807   3.895   2.831   7.196  0.4997 -0.5484 -0.2736
 8796SOL    HW127808   3.941   2.862   7.274 -1.9217 -0.5431  1.2508
 8796SOL    HW227809   3.904   2.736   7.200  0.9899 -0.5097 -0.4001
 8797SOL     OW27810   4.519   3.156   3.721  0.2105 -0.0517 -0.0863
 8797SOL    HW127811   4.505   3.200   3.637  2.5471  0.4633 -0.2786
 8797SOL    HW227812   4.486   3.217   3.786 -2.5971 -0.8968 -0.5977
 8798SOL     OW27813   3.554   5.993   2.371  0.6279  0.1060  0.8065
 8798SOL    HW127814   3.491   5.946   2.427  1.9885 -0.0957  2.2369
 8798SOL    HW227815   3.578   6.070   2.422 -1.4398  2.4067 -1.4259
 8799SOL     OW27816   3.123   1.484   5.583  0.0954  0.0838 -0.6081
 8799SOL    HW127817   3.166   1.566   5.606  0.7117  0.1277 -1.8643
 8799SOL    HW227818   3.194   1.421   5.574  0.1462  0.4480 -3.9561
 8800SOL     OW27819   3.568   6.853   3.922 -0.1286  0.2442 -0.1273
 8800SOL    HW127820   3.572   6.758   3.913 -0.4702  0.2905 -0.8320
 8800SOL    HW227821   3.537   6.884   3.837 -1.6052  0.8577  0.6000
 8801SOL     OW27822   7.666   7.994   7.827  0.3590 -0.2639 -0.5659
 8801SOL    HW127823   7.598   8.061   7.839  0.7688  0.1587 -0.5920
 8801SOL    HW227824   7.694   8.005   7.736  0.6991 -0.2131 -0.4542
 8802SOL     OW27825   4.005   7.975   5.488 -0.1636 -0.6555  0.3237
 8802SOL    HW127826   4.073   7.914   5.462  2.2729  0.9053  2.4440
 8802SOL    HW227827   4.041   8.061   5.466 -2.1995  0.1653  0.0277
 8803SOL     OW27828   5.820   5.925   0.889  0.1274 -0.2135  0.0613
 8803SOL    HW127829   5.771   6.000   0.854  1.8256  0.0310 -1.9744
 8803SOL    HW227830   5.794   5.921   0.981 -1.6710  1.5132 -0.2971
 8804SOL     OW27831   2.508   5.654   1.760  0.2786 -0.1039  0.0790
 8804SOL    HW127832   2.578   5.639   1.696  1.2731 -0.9092  1.3268
 8804SOL    HW227833   2.541   5.618   1.842 -1.5019 -0.2755  0.7726
 8805SOL     OW27834   2.071   2.802   7.161  0.2658 -0.2083  0.0229
 8805SOL    HW127835   2.136   2.732   7.162 -0.4572 -0.9481  3.1637
 8805SOL    HW227836   2.104   2.867   7.223 -0.4018  0.9973 -0.8410
 8806SOL     OW27837   0.452   6.540   5.681  0.0155  0.2577 -0.2356
 8806SOL    HW127838   0.481   6.630   5.697  1.4092 -0.1511 -0.3951
 8806SOL    HW227839   0.505   6.486   5.740 -1.2712 -0.4249  0.3479
 8807SOL     OW27840   7.956   1.736   6.349 -0.6773 -0.0459  0.2025
 8807SOL    HW127841   7.903   1.661   6.376  0.5765 -2.2289 -2.7067
 8807SOL    HW227842   7.897   1.790   6.297 -1.0333 -0.3575  0.2798
 8808SOL     OW27843   2.831   7.732   3.973  0.5188  0.6032 -0.0087
 8808SOL    HW127844   2.842   7.715   3.879 -1.5972 -0.1608 -0.1737
 8808SOL    HW227845   2.886   7.667   4.016  1.2697  0.7618 -0.6970
 8809SOL     OW27846   1.763   6.064   4.089  0.4793  0.0593 -0.1606
 8809SOL    HW127847   1.800   6.139   4.043 -1.0248  1.0062  0.0794
 8809SOL    HW227848   1.732   6.100   4.173  0.1365 -0.9128  0.1468
 8810SOL     OW27849   7.419   0.916   3.203  0.0107 -0.4507  0.2038
 8810SOL    HW127850   7.366   0.837   3.212  1.5170 -1.6038 -0.6768
 8810SOL    HW227851   7.355   0.986   3.186 -1.2580 -1.6659 -0.1981
 8811SOL     OW27852   4.702   6.978   5.776  0.0949 -0.3843  0.1522
 8811SOL    HW127853   4.678   6.968   5.868  1.9376 -0.6270  0.6613
 8811SOL    HW227854   4.756   6.901   5.757 -0.1596 -0.2827 -1.1068
 8812SOL     OW27855   1.243   3.638   5.168 -0.7397  0.2660  0.4309
 8812SOL    HW127856   1.169   3.583   5.142  0.6262 -1.7737  0.5671
 8812SOL    HW227857   1.316   3.576   5.177  0.3862  1.7900  2.8606
 8813SOL     OW27858   3.690   6.434   4.869 -0.3606 -0.0828  0.0821
 8813SOL    HW127859   3.726   6.515   4.906  0.0350 -0.2003 -0.0354
 8813SOL    HW227860   3.715   6.438   4.776 -0.1467 -0.4447  0.1226
 8814SOL     OW27861   0.361   3.401   7.436  0.3023 -0.3484 -0.4345
 8814SOL    HW127862   0.423   3.352   7.491  2.2999  0.1258 -2.1420
 8814SOL    HW227863   0.288   3.341   7.423  0.9566 -1.4159  0.6427
 8815SOL     OW27864   4.844   1.351   4.105  0.5152  0.2414  0.0966
 8815SOL    HW127865   4.796   1.326   4.026  1.1737 -1.6660  0.2467
 8815SOL    HW227866   4.777   1.389   4.163  0.1249  2.2493 -1.5508
 8816SOL     OW27867   1.386   6.345   0.037  0.2055  0.2004 -0.0055
 8816SOL    HW127868   1.461   6.395   0.004  0.3190  1.5926  2.2189
 8816SOL    HW227869   1.310   6.390   0.001  0.3197  1.8500  1.6687
 8817SOL     OW27870   2.691   0.052   3.624 -0.1071 -0.5421 -0.3747
 8817SOL    HW127871   2.719   0.136   3.588 -1.2198 -0.2337 -0.5624
 8817SOL    HW227872   2.770  -0.001   3.626  0.6137  0.5055 -0.2552
 8818SOL     OW27873   4.395   7.486   7.276  0.0298 -0.3348 -0.4615
 8818SOL    HW127874   4.311   7.524   7.303  0.4572  0.3833 -0.1491
 8818SOL    HW227875   4.370   7.401   7.239 -0.9351  0.2612 -1.2445
 8819SOL     OW27876   1.537   1.209   3.054  0.5861 -0.6887 -0.1863
 8819SOL    HW127877   1.588   1.264   2.994  1.3446  0.1318  1.1575
 8819SOL    HW227878   1.464   1.265   3.081  1.0556 -0.4995  0.7539
 8820SOL     OW27879   7.201   2.310   0.279 -0.2085 -0.4822  0.2866
 8820SOL    HW127880   7.183   2.272   0.193 -2.1300 -1.0106  0.8725
 8820SOL    HW227881   7.288   2.348   0.271 -1.1853  1.4591 -2.6037
 8821SOL     OW27882   6.654   1.858   0.405 -0.0099  0.0138  0.1016
 8821SOL    HW127883   6.687   1.785   0.457  0.4855  0.4360  0.3878
 8821SOL    HW227884   6.676   1.936   0.456 -0.2473  0.3854 -0.3513
 8822SOL     OW27885   2.471   2.504   5.980  0.2493  0.1555  0.1012
 8822SOL    HW127886   2.561   2.490   5.952  0.4282  0.9359  0.2681
 8822SOL    HW227887   2.470   2.593   6.015 -0.1596 -0.4735  1.7881
 8823SOL     OW27888   4.688   0.555   2.393 -0.2100 -0.4458 -0.1700
 8823SOL    HW127889   4.682   0.482   2.456  0.3416 -0.2750  0.0853
 8823SOL    HW227890   4.597   0.578   2.375 -0.3806 -0.6184  0.4301
 8824SOL     OW27891   5.798   3.943   4.483 -0.4808  0.8224  0.2340
 8824SOL    HW127892   5.711   3.965   4.515 -0.8409 -0.1155 -0.0784
 8824SOL    HW227893   5.849   4.023   4.497 -1.6646  1.7657 -0.6439
 8825SOL     OW27894   1.709   4.402   0.198  0.2666 -0.3390  0.0793
 8825SOL    HW127895   1.651   4.384   0.124  0.1194  0.2921  0.0360
 8825SOL    HW227896   1.747   4.488   0.178  1.4358 -0.8492 -0.0388
 8826SOL     OW27897   3.206   3.240   0.037 -0.2502 -0.0207  0.1057
 8826SOL    HW127898   3.166   3.174  -0.020 -1.7815  1.1836 -0.2856
 8826SOL    HW227899   3.276   3.279  -0.015 -2.1457  1.6380 -1.3872
 8827SOL     OW27900   6.664   5.212   0.191  0.0366 -0.2704  0.1565
 8827SOL    HW127901   6.703   5.281   0.139  1.3670  0.4384  1.9973
 8827SOL    HW227902   6.687   5.234   0.282 -1.0706 -2.1345  0.9494
 8828SOL     OW27903   6.719   1.399   3.082 -0.4958  0.1170  0.5482
 8828SOL    HW127904   6.802   1.352   3.080 -0.7338 -0.2843 -0.5797
 8828SOL    HW227905   6.666   1.350   3.145 -0.0136  0.1510  0.9856
 8829SOL     OW27906   3.001   5.828   6.306 -0.7836  0.1423  0.1039
 8829SOL    HW127907   2.915   5.830   6.349 -0.6577  0.1927  0.3573
 8829SOL    HW227908   3.063   5.827   6.379 -0.5778 -0.2029 -0.0776
 8830SOL     OW27909   6.253   0.460   5.942  0.0967  0.3490  0.1196
 8830SOL    HW127910   6.197   0.383   5.951 -0.2557  0.7844  1.8415
 8830SOL    HW227911   6.196   0.526   5.903 -0.5952  0.7688  1.7992
 8831SOL     OW27912   0.724   7.058   4.780  0.1552  0.1993 -0.5224
 8831SOL    HW127913   0.792   7.125   4.775  1.0744 -0.6736 -0.2244
 8831SOL    HW227914   0.758   6.986   4.725 -0.8203 -0.0149 -0.8660
 8832SOL     OW27915   6.426   2.299   2.198 -0.0963  0.1531 -0.0224
 8832SOL    HW127916   6.483   2.234   2.155 -0.2446 -0.1369  0.2136
 8832SOL    HW227917   6.371   2.247   2.257  1.0351  0.6534  1.5612
 8833SOL     OW27918   2.387   5.852   2.590  0.1705 -0.0897  0.5951
 8833SOL    HW127919   2.463   5.859   2.532  0.9927 -0.3230  1.5916
 8833SOL    HW227920   2.316   5.823   2.534  0.4405  1.5350 -0.6632
 8834SOL     OW27921   4.302   3.622   3.324  0.1299 -0.0626 -0.3247
 8834SOL    HW127922   4.250   3.620   3.243 -0.2252 -0.9717 -0.0864
 8834SOL    HW227923   4.259   3.559   3.381  0.4967  0.4264  0.5111
 8835SOL     OW27924   2.786   0.392   4.382 -0.0656 -0.5498  0.1735
 8835SOL    HW127925   2.823   0.446   4.452 -1.4301 -1.9094  2.0658
 8835SOL    HW227926   2.751   0.315   4.428 -1.5461 -1.2283 -1.9568
 8836SOL     OW27927   3.677   7.489   6.267 -0.4971 -0.1042 -0.5657
 8836SOL    HW127928   3.741   7.468   6.199  0.4952  0.6990  0.0861
 8836SOL    HW227929   3.726   7.484   6.348 -1.8669 -1.8772  0.2142
 8837SOL     OW27930   5.174   7.314   0.543 -0.3815  0.0253 -0.0829
 8837SOL    HW127931   5.099   7.256   0.531 -1.2240  1.1817 -0.5362
 8837SOL    HW227932   5.155   7.390   0.489  1.0729  0.4016 -0.1103
 8838SOL     OW27933   5.582   4.802   4.646 -0.3597  0.1397 -0.0178
 8838SOL    HW127934   5.598   4.715   4.610  0.6524  0.4988 -0.4783
 8838SOL    HW227935   5.620   4.799   4.734  0.9101  0.5162 -0.5364
 8839SOL     OW27936   5.603   4.119   3.936  0.0747  0.0532 -0.1073
 8839SOL    HW127937   5.565   4.206   3.932  0.6450  0.3529  0.6924
 8839SOL    HW227938   5.669   4.125   4.005  0.8204 -0.7385 -0.7327
 8840SOL     OW27939   1.811   1.771   0.603 -0.2491  0.2320 -0.2640
 8840SOL    HW127940   1.769   1.807   0.681  0.4238 -1.7146  1.0550
 8840SOL    HW227941   1.768   1.816   0.530 -3.7243 -0.7331  1.0118
 8841SOL     OW27942   1.455   7.001   5.866  0.1106  0.1352 -0.1722
 8841SOL    HW127943   1.491   7.020   5.779 -0.9026 -0.0867 -0.6487
 8841SOL    HW227944   1.389   7.068   5.881  0.6571  0.5139  0.6898
 8842SOL     OW27945   4.267   5.919   3.119  0.2333 -0.5330  1.1089
 8842SOL    HW127946   4.220   5.963   3.190  2.2528 -1.0247  2.8541
 8842SOL    HW227947   4.285   5.989   3.056  0.6087  0.4960  2.3110
 8843SOL     OW27948   1.327   7.942   2.644  0.1156 -0.3014  0.1200
 8843SOL    HW127949   1.281   7.913   2.565  0.7614 -0.5632 -0.1609
 8843SOL    HW227950   1.299   8.033   2.655 -1.6201 -0.8751  0.7929
 8844SOL     OW27951   4.501   7.871   1.607  0.4538  0.4069 -0.5601
 8844SOL    HW127952   4.520   7.865   1.700  0.6999 -0.1733 -0.6441
 8844SOL    HW227953   4.473   7.783   1.582 -0.8412  0.8455 -0.7710
 8845SOL     OW27954   6.303   5.050   4.062 -0.0550  0.2281  0.4506
 8845SOL    HW127955   6.218   5.016   4.035 -0.2263  1.6794 -1.0284
 8845SOL    HW227956   6.344   5.080   3.980  1.3653  0.6715  1.2823
 8846SOL     OW27957   3.043   1.812   7.186 -0.5411  0.1996  0.3247
 8846SOL    HW127958   2.984   1.859   7.244  1.3901  1.8400  1.0821
 8846SOL    HW227959   3.060   1.729   7.231  0.3203  1.1240  1.7926
 8847SOL     OW27960   5.032   0.152   5.081 -0.0987  0.1363  0.2282
 8847SOL    HW127961   5.031   0.061   5.053  1.6551  0.2659 -0.4108
 8847SOL    HW227962   5.059   0.149   5.173  1.8683  0.0667 -0.3153
 8848SOL     OW27963   1.354   6.682   0.895 -0.0290  0.2223 -0.0923
 8848SOL    HW127964   1.342   6.712   0.985  0.6977  0.4834 -0.0724
 8848SOL    HW227965   1.408   6.749   0.854 -1.0299  0.5187 -0.9682
 8849SOL     OW27966   5.797   5.154   5.402  0.2656  0.2975 -0.3114
 8849SOL    HW127967   5.742   5.210   5.456  2.6894  2.6171 -0.0632
 8849SOL    HW227968   5.750   5.148   5.318 -1.1817  0.6985  0.4469
 8850SOL     OW27969   1.163   4.135   3.249  0.4930  0.0595  0.0983
 8850SOL    HW127970   1.249   4.143   3.290  0.6965  0.5034 -0.4137
 8850SOL    HW227971   1.180   4.134   3.155 -0.1739  1.8969 -0.0842
 8851SOL     OW27972   1.219   2.070   3.877  0.1592 -0.1879 -0.1563
 8851SOL    HW127973   1.143   2.118   3.907 -0.3432  0.4699 -2.3416
 8851SOL    HW227974   1.204   1.980   3.906 -1.7514 -0.1904 -1.0629
 8852SOL     OW27975   0.836   6.717   2.600  0.1801 -0.3526 -0.1549
 8852SOL    HW127976   0.865   6.655   2.533  1.3525 -0.0275  0.0335
 8852SOL    HW227977   0.753   6.750   2.567  0.0223 -1.2786 -0.7364
 8853SOL     OW27978   6.161   0.234   1.306  0.1000 -0.1264 -0.2036
 8853SOL    HW127979   6.236   0.182   1.278 -0.9167 -1.0262 -1.4213
 8853SOL    HW227980   6.146   0.207   1.396  0.3970 -1.0099 -0.4039
 8854SOL     OW27981   2.830   2.747   4.740  0.0262  0.2704 -0.0611
 8854SOL    HW127982   2.888   2.688   4.692 -1.7836 -1.1423 -0.6470
 8854SOL    HW227983   2.747   2.744   4.692 -0.6587  1.9607  0.9114
 8855SOL     OW27984   1.696   4.883   2.658 -0.6551  0.2950  0.3611
 8855SOL    HW127985   1.787   4.902   2.638 -0.6667  0.9419  0.8858
 8855SOL    HW227986   1.649   4.964   2.639 -1.0333  0.1416  0.6233
 8856SOL     OW27987   4.109   3.217   6.079 -0.2635  0.6471 -0.4606
 8856SOL    HW127988   4.156   3.292   6.041 -1.1200  0.8469 -1.1674
 8856SOL    HW227989   4.081   3.247   6.165 -0.5571  1.1260 -0.7203
 8857SOL     OW27990   5.879   6.088   7.373  0.0452  0.3280  0.1206
 8857SOL    HW127991   5.963   6.061   7.410 -1.2017 -1.5146  1.8326
 8857SOL    HW227992   5.871   6.180   7.398  1.8727  0.7928 -0.8023
 8858SOL     OW27993   3.402   4.446   4.683  0.0598 -0.3505 -0.3030
 8858SOL    HW127994   3.306   4.450   4.677  0.1485 -0.8065 -2.9146
 8858SOL    HW227995   3.424   4.358   4.652  1.3944  0.3780 -1.5269
 8859SOL     OW27996   8.017   7.291   0.444  0.0247  0.3103 -0.2554
 8859SOL    HW127997   7.968   7.346   0.383  0.2965 -0.2492 -0.9852
 8859SOL    HW227998   8.093   7.344   0.469 -0.6751  0.9941  0.5142
 8860SOL     OW27999   1.171   6.975   4.631 -0.6636 -0.1066 -0.0168
 8860SOL    HW128000   1.237   7.008   4.693 -1.9643  2.2628  0.2277
 8860SOL    HW228001   1.183   7.029   4.553 -3.2770  1.5397  0.6069
 8861SOL     OW28002   7.292   7.829   2.075 -0.6480 -0.1557  0.4282
 8861SOL    HW128003   7.281   7.778   1.994  0.6756 -0.9190  0.6871
 8861SOL    HW228004   7.371   7.881   2.059  0.1929 -1.0359  1.5654
 8862SOL     OW28005   7.082   5.192   8.048  0.6803 -0.4016 -0.1923
 8862SOL    HW128006   7.133   5.232   7.978  3.0454 -1.5871  0.7255
 8862SOL    HW228007   7.091   5.098   8.033 -0.1672 -0.6491  0.7603
 8863SOL     OW28008   5.142   5.679   6.483  0.0935 -0.2806  0.3523
 8863SOL    HW128009   5.167   5.747   6.547  0.5302  1.7712 -1.8406
 8863SOL    HW228010   5.210   5.685   6.415 -0.1786 -2.5960 -0.1966
 8864SOL     OW28011   7.398   6.044   2.556 -0.6520  0.6545  0.8010
 8864SOL    HW128012   7.486   6.014   2.578 -0.8901  0.3291  1.3581
 8864SOL    HW228013   7.346   6.023   2.634 -1.9194 -2.1003 -0.6559
 8865SOL     OW28014   4.969   3.797   0.370  0.3372  0.0305 -0.1147
 8865SOL    HW128015   5.027   3.807   0.445 -2.1559  1.9154  1.7390
 8865SOL    HW228016   4.956   3.703   0.362  2.0706 -0.3131  0.6257
 8866SOL     OW28017   7.312   5.379   2.735  0.0463 -0.3364 -0.1143
 8866SOL    HW128018   7.313   5.407   2.644  0.4314 -0.2387 -0.0847
 8866SOL    HW228019   7.222   5.391   2.764  0.5195  2.7848  0.4678
 8867SOL     OW28020   6.833   6.781   0.088 -0.1511 -0.3443  0.0071
 8867SOL    HW128021   6.781   6.853   0.054  0.5062  0.4753  0.6943
 8867SOL    HW228022   6.900   6.765   0.022 -0.1821 -0.1916 -0.0599
 8868SOL     OW28023   7.917   7.997   3.616 -0.3924  0.3728 -0.5344
 8868SOL    HW128024   7.939   7.919   3.566 -0.3632 -0.5358  0.8440
 8868SOL    HW228025   7.995   8.053   3.610  0.9042 -1.1423  1.1302
 8869SOL     OW28026   3.330   5.399   0.956 -0.7073 -0.2080 -0.2017
 8869SOL    HW128027   3.295   5.486   0.937  0.8055 -0.0871 -2.9713
 8869SOL    HW228028   3.269   5.338   0.915 -0.4984 -0.2895 -0.3991
 8870SOL     OW28029   3.343   2.469   5.781  0.0126 -0.2066  0.5116
 8870SOL    HW128030   3.416   2.407   5.787  0.1635 -0.3356 -1.6595
 8870SOL    HW228031   3.384   2.553   5.759 -0.4546 -0.3851 -1.2333
 8871SOL     OW28032   0.513   3.905   0.593  0.6278  0.1318  0.2580
 8871SOL    HW128033   0.464   3.931   0.515  0.5376 -1.2844 -0.1811
 8871SOL    HW228034   0.603   3.932   0.574  0.7264 -0.7435 -0.6212
 8872SOL     OW28035   5.454   0.396   7.189  0.6397 -0.2597 -0.3703
 8872SOL    HW128036   5.440   0.433   7.276  2.5491  1.3819 -0.6812
 8872SOL    HW228037   5.387   0.329   7.181  0.0786 -0.1289  2.1615
 8873SOL     OW28038   0.354   1.266   0.282  0.7088 -0.2804  0.1413
 8873SOL    HW128039   0.430   1.208   0.275  0.6878 -0.1948 -0.9584
 8873SOL    HW228040   0.324   1.255   0.372  1.8834 -0.4894  0.5282
 8874SOL     OW28041   2.227   6.285   5.860  0.2428 -0.2893 -0.2966
 8874SOL    HW128042   2.227   6.250   5.771  0.8679 -0.1839 -0.3387
 8874SOL    HW228043   2.134   6.286   5.884  0.1752 -1.5886 -0.4359
 8875SOL     OW28044   0.355   6.791   0.336 -0.2289  0.0609 -0.5262
 8875SOL    HW128045   0.370   6.757   0.248 -2.7277  0.1352 -1.0545
 8875SOL    HW228046   0.317   6.878   0.321  0.9486  0.8195  0.6974
 8876SOL     OW28047   4.418   2.103   7.366 -0.2144 -0.0600  0.5557
 8876SOL    HW128048   4.419   2.190   7.325 -0.6122 -0.5786 -0.5860
 8876SOL    HW228049   4.416   2.122   7.460 -1.0617  1.1814  0.3242
 8877SOL     OW28050   7.180   5.697   2.260  0.2367 -0.4408 -0.1569
 8877SOL    HW128051   7.152   5.619   2.212  1.0177  0.1349 -1.5820
 8877SOL    HW228052   7.220   5.753   2.194  4.1325 -0.8997  1.5596
 8878SOL     OW28053   3.261   3.270   3.123  0.5638  0.2875  0.0058
 8878SOL    HW128054   3.233   3.317   3.202  1.6081 -0.1740  0.6732
 8878SOL    HW228055   3.221   3.183   3.132 -1.5735  1.0320 -1.3481
 8879SOL     OW28056   2.151   2.576   2.856  0.0466  0.0711  0.6049
 8879SOL    HW128057   2.140   2.540   2.768  0.2838  1.9093 -0.2214
 8879SOL    HW228058   2.158   2.499   2.913  0.3186 -1.1610 -1.0268
 8880SOL     OW28059   7.610   3.095   1.119  0.5408  0.3399 -0.0359
 8880SOL    HW128060   7.550   3.138   1.057 -0.0848 -0.5231 -0.0483
 8880SOL    HW228061   7.616   3.005   1.087  0.3006 -0.0840  1.0811
 8881SOL     OW28062   0.121   1.049   5.054 -0.4940  0.0178 -0.5828
 8881SOL    HW128063   0.043   1.051   4.998  0.1043  0.9292 -1.4136
 8881SOL    HW228064   0.131   0.956   5.077 -0.9844 -0.3236 -1.6770
 8882SOL     OW28065   5.450   0.911   1.193 -0.4236 -0.3610 -0.0571
 8882SOL    HW128066   5.455   0.997   1.152 -1.0608  0.6243  1.8008
 8882SOL    HW228067   5.518   0.913   1.261 -2.1746 -0.2673  1.7659
 8883SOL     OW28068   1.030   7.971   4.759 -0.3227 -0.2061  0.5121
 8883SOL    HW128069   1.103   7.998   4.704 -0.8557  1.3183  0.5205
 8883SOL    HW228070   1.059   7.888   4.798  0.9519 -0.1703 -0.3023
 8884SOL     OW28071   7.324   4.713   7.454  0.0715 -0.0279  0.2220
 8884SOL    HW128072   7.417   4.736   7.458  0.1478 -0.4761  1.1205
 8884SOL    HW228073   7.279   4.787   7.495  0.2467 -0.9867  2.2364
 8885SOL     OW28074   3.907   5.425   4.183  0.4732 -0.2796 -0.0218
 8885SOL    HW128075   3.814   5.429   4.159  0.3889  0.5218  0.3966
 8885SOL    HW228076   3.953   5.461   4.107  0.4786 -1.0450 -0.3890
 8886SOL     OW28077   5.488   5.320   2.025 -0.6246  0.4623 -0.0066
 8886SOL    HW128078   5.466   5.334   1.933 -0.3550  4.0035  0.3315
 8886SOL    HW228079   5.583   5.322   2.028 -0.6507  2.8835  0.5766
 8887SOL     OW28080   3.038   2.235   7.391 -0.6019 -0.0718 -0.2384
 8887SOL    HW128081   3.078   2.151   7.412  0.7507  0.9955  1.7758
 8887SOL    HW228082   3.092   2.270   7.319 -2.2116 -1.5814 -2.2974
 8888SOL     OW28083   6.693   6.515   5.290  0.2420  0.6590  0.1087
 8888SOL    HW128084   6.725   6.504   5.200  0.9066 -0.8874  0.4940
 8888SOL    HW228085   6.747   6.585   5.326  1.7741 -0.4322  0.0579
 8889SOL     OW28086   7.466   3.482   0.225 -0.4452 -0.0860  0.0813
 8889SOL    HW128087   7.455   3.395   0.263 -2.1582  0.1505  0.2060
 8889SOL    HW228088   7.429   3.542   0.290  1.9488  0.9242  0.6347
 8890SOL     OW28089   2.400   5.298   2.130  0.7257  0.6800 -0.5599
 8890SOL    HW128090   2.366   5.272   2.044  1.8567  0.8290 -1.0746
 8890SOL    HW228091   2.404   5.217   2.180 -0.7902  0.7316 -0.3262
 8891SOL     OW28092   3.016   3.091   7.322  0.2340 -0.1371  0.0355
 8891SOL    HW128093   2.972   3.175   7.334  1.7032  0.9322 -1.5823
 8891SOL    HW228094   2.946   3.026   7.332 -1.4529  1.3952 -0.9892
 8892SOL     OW28095   2.264   3.767   2.557  0.4185 -0.0891 -0.0788
 8892SOL    HW128096   2.306   3.682   2.552  0.3944 -0.0654 -0.7450
 8892SOL    HW228097   2.257   3.796   2.466 -2.4649 -0.7772 -0.1536
 8893SOL     OW28098   2.851   2.866   7.381 -0.0725 -0.1345 -0.2741
 8893SOL    HW128099   2.883   2.794   7.435 -0.8187 -0.2156  0.0725
 8893SOL    HW228100   2.844   2.828   7.293  0.4000 -0.2203 -0.2781
 8894SOL     OW28101   1.047   4.389   0.346  0.6255 -0.2926  0.2990
 8894SOL    HW128102   1.050   4.298   0.375  0.8200 -0.7700 -1.1607
 8894SOL    HW228103   1.139   4.415   0.339  0.6057 -0.5031 -0.8252
 8895SOL     OW28104   4.739   3.157   0.144  0.8966  0.2676  0.1471
 8895SOL    HW128105   4.805   3.218   0.109  1.4095  0.4639  1.4009
 8895SOL    HW228106   4.726   3.186   0.234 -0.2316 -0.3572  0.1973
 8896SOL     OW28107   0.950   4.671   3.159 -0.2313  0.0281  0.7662
 8896SOL    HW128108   0.926   4.755   3.121  0.1646 -0.5405 -0.8236
 8896SOL    HW228109   1.045   4.675   3.167 -0.3411  0.2704  2.0553
 8897SOL     OW28110   6.554   1.381   3.516 -0.5857  0.2128  0.2788
 8897SOL    HW128111   6.602   1.315   3.566  1.6685  0.5936 -1.2190
 8897SOL    HW228112   6.543   1.454   3.577  2.9302  1.0386  0.1333
 8898SOL     OW28113   4.859   0.440   5.768  0.1229 -0.1150 -0.2886
 8898SOL    HW128114   4.848   0.361   5.716 -3.6682  0.3690 -0.4504
 8898SOL    HW228115   4.808   0.507   5.722 -0.9798  1.0961  2.4672
 8899SOL     OW28116   2.364   7.415   0.990  0.1762 -0.1797 -0.0441
 8899SOL    HW128117   2.373   7.495   1.041 -2.3422  0.9666 -1.2783
 8899SOL    HW228118   2.299   7.363   1.036 -0.6080 -0.0473 -0.9738
 8900SOL     OW28119   4.059   8.001   3.991 -0.1354 -0.1041  0.2984
 8900SOL    HW128120   4.106   8.016   3.908 -0.3074  0.2537  0.2616
 8900SOL    HW228121   4.103   8.059   4.054  0.7439 -1.2229  0.7442
 8901SOL     OW28122   6.944   0.168   3.503  0.1415 -0.0402  0.4977
 8901SOL    HW128123   7.001   0.195   3.576 -0.1954 -1.5296  1.3452
 8901SOL    HW228124   6.870   0.229   3.507  1.3088  1.4779 -0.1900
 8902SOL     OW28125   0.583   5.993   7.365 -0.0047 -0.5143  0.3192
 8902SOL    HW128126   0.548   5.923   7.420  1.8124 -0.7186  1.2944
 8902SOL    HW228127   0.508   6.049   7.347 -0.8594 -0.9325  2.2872
 8903SOL     OW28128   4.919   3.197   1.587  0.2426 -0.2637  0.3430
 8903SOL    HW128129   4.911   3.256   1.662 -1.7327  0.0255 -0.0521
 8903SOL    HW228130   4.829   3.172   1.566  0.6781  0.1354 -2.2887
 8904SOL     OW28131   3.751   3.712   4.895  0.5442 -0.0445  0.4310
 8904SOL    HW128132   3.782   3.668   4.816  0.2849  3.0962 -1.6329
 8904SOL    HW228133   3.815   3.783   4.909 -1.0794  1.3567  1.1410
 8905SOL     OW28134   6.147   2.486   3.507 -0.5598  0.1485 -0.4582
 8905SOL    HW128135   6.179   2.492   3.417 -2.3921  0.5603 -1.1141
 8905SOL    HW228136   6.123   2.394   3.518 -0.1188  0.0485 -0.2932
 8906SOL     OW28137   2.052   4.519   1.411  0.0979 -0.1444  0.5707
 8906SOL    HW128138   2.084   4.486   1.494  2.0325  2.1021  0.8229
 8906SOL    HW228139   2.117   4.492   1.347 -1.4555 -1.9985 -0.3395
 8907SOL     OW28140   4.387   7.271   4.409  0.1223 -0.2425  0.1856
 8907SOL    HW128141   4.438   7.212   4.353 -0.1508 -2.2066  1.8754
 8907SOL    HW228142   4.296   7.254   4.387  0.0616  1.0952 -0.7344
 8908SOL     OW28143   5.314   1.271   0.935 -0.8714 -0.3386  0.5048
 8908SOL    HW128144   5.371   1.283   0.859 -0.9869 -0.6565  0.3678
 8908SOL    HW228145   5.281   1.182   0.926 -1.0160 -0.3178  0.8398
 8909SOL     OW28146   0.944   8.009   5.205 -0.6437 -0.1119  0.4978
 8909SOL    HW128147   1.004   8.063   5.155 -0.0845 -0.4102  0.8406
 8909SOL    HW228148   0.987   7.996   5.289 -0.2347 -2.0078  0.0435
 8910SOL     OW28149   4.991   0.679   3.607  0.2047  0.4647 -1.0809
 8910SOL    HW128150   4.936   0.617   3.558 -0.2375 -0.5602  0.6226
 8910SOL    HW228151   5.079   0.664   3.573  0.4917 -2.6517  0.5697
 8911SOL     OW28152   5.527   6.285   6.197 -0.0075  0.3550 -0.6816
 8911SOL    HW128153   5.594   6.221   6.222 -1.2751 -1.1865 -0.9996
 8911SOL    HW228154   5.564   6.330   6.121  1.6751  1.3357  0.6580
 8912SOL     OW28155   1.808   4.908   1.663  0.3027 -0.8009 -0.0335
 8912SOL    HW128156   1.765   4.864   1.737  1.2096 -1.2478  0.2425
 8912SOL    HW228157   1.855   4.837   1.618  1.1548 -0.2411 -0.0378
 8913SOL     OW28158   4.755   3.012   5.488  0.0909 -0.0367 -0.0999
 8913SOL    HW128159   4.781   3.001   5.579  0.0417 -1.5175 -0.2431
 8913SOL    HW228160   4.790   2.935   5.443  1.7165  1.5422 -1.7132
 8914SOL     OW28161   4.421   5.013   0.075 -0.5154  0.6172 -0.7612
 8914SOL    HW128162   4.388   4.927   0.102  2.0353 -0.7085 -1.4766
 8914SOL    HW228163   4.407   5.015  -0.019  0.9171  0.2186 -1.0057
 8915SOL     OW28164   6.416   7.761   5.769 -0.0231  0.2215  0.0214
 8915SOL    HW128165   6.334   7.785   5.724 -0.6329  0.0814  1.0314
 8915SOL    HW228166   6.437   7.674   5.735 -0.0966  0.4052 -0.5064
 8916SOL     OW28167   0.720   1.892   0.315 -0.1619 -0.1428 -0.4689
 8916SOL    HW128168   0.700   1.825   0.249  0.6680 -0.8183 -0.0654
 8916SOL    HW228169   0.656   1.961   0.300 -1.4315 -1.2822 -0.5341
 8917SOL     OW28170   7.722   2.996   0.789  0.8018  0.1212 -0.0508
 8917SOL    HW128171   7.690   2.933   0.853 -1.0702 -0.4715 -1.4599
 8917SOL    HW228172   7.644   3.044   0.761  1.5532  0.4374 -1.7797
 8918SOL     OW28173   3.430   3.650   3.287  0.0563 -0.8220  0.6714
 8918SOL    HW128174   3.512   3.674   3.244 -0.1381 -2.1825 -0.5180
 8918SOL    HW228175   3.370   3.631   3.215 -0.8751 -1.2717  1.5399
 8919SOL     OW28176   4.356   6.374   0.845  0.2413  0.4066  0.0693
 8919SOL    HW128177   4.432   6.318   0.860 -0.4030 -0.6066 -0.2795
 8919SOL    HW228178   4.302   6.361   0.923 -0.2055  0.0368 -0.2961
 8920SOL     OW28179   5.023   4.027   4.899 -0.0572 -0.0346 -0.3268
 8920SOL    HW128180   5.016   4.103   4.841 -0.5501 -0.0581 -0.3016
 8920SOL    HW228181   5.012   4.063   4.987  1.9439  0.1918 -0.1216
 8921SOL     OW28182   0.973   3.085   3.297  0.5526 -0.2688 -0.4763
 8921SOL    HW128183   0.878   3.087   3.300  0.4562 -3.0377  0.9244
 8921SOL    HW228184   0.994   3.028   3.223  1.0827 -0.4304 -0.2086
 8922SOL     OW28185   5.754   7.871   3.628 -0.4973  0.6906  0.2696
 8922SOL    HW128186   5.827   7.933   3.633 -0.1680  0.3454 -0.1388
 8922SOL    HW228187   5.773   7.805   3.694  1.5558 -1.4576 -2.2094
 8923SOL     OW28188   4.252   4.790   7.564  0.6066 -0.1912  0.1355
 8923SOL    HW128189   4.291   4.876   7.583 -0.2210 -0.1303  1.6915
 8923SOL    HW228190   4.158   4.807   7.559  0.4236 -1.0402  0.6325
 8924SOL     OW28191   0.633   0.408   7.374 -0.5626 -0.5766 -0.0727
 8924SOL    HW128192   0.633   0.454   7.291 -2.1765  0.0432  0.2230
 8924SOL    HW228193   0.720   0.370   7.381 -0.0534  0.2442 -1.5428
 8925SOL     OW28194   5.572   5.947   2.675 -0.3459  0.1967  0.4944
 8925SOL    HW128195   5.662   5.925   2.653 -0.7821 -2.2424  0.8258
 8925SOL    HW228196   5.576   5.985   2.762  0.4253  0.9501  0.1410
 8926SOL     OW28197   1.714   7.612   0.214 -0.0275  0.0498  0.4794
 8926SOL    HW128198   1.766   7.561   0.153  0.5809  0.4970  0.6229
 8926SOL    HW228199   1.749   7.589   0.301  0.9755  1.4861  0.4938
 8927SOL     OW28200   3.244   0.680   1.789  0.5379  0.5021 -0.9092
 8927SOL    HW128201   3.338   0.698   1.779  0.4588  0.8392 -1.0619
 8927SOL    HW228202   3.214   0.658   1.701  0.5568 -0.0259 -0.7874
 8928SOL     OW28203   4.024   4.274   0.665 -0.4149  0.0105  0.8481
 8928SOL    HW128204   4.079   4.263   0.742  0.5612  1.0910  0.3484
 8928SOL    HW228205   4.062   4.214   0.600 -1.8086 -1.5981  1.4532
 8929SOL     OW28206   3.507   4.557   4.466 -0.0637 -0.2911 -0.3079
 8929SOL    HW128207   3.467   4.514   4.542  2.6758  0.7028  1.8677
 8929SOL    HW228208   3.502   4.650   4.485  0.6107 -0.0090 -1.3921
 8930SOL     OW28209   0.605   1.220   3.055 -0.0749 -0.4512  0.5675
 8930SOL    HW128210   0.641   1.238   3.142  0.4330  0.7608  0.1348
 8930SOL    HW228211   0.667   1.262   2.995 -0.3504 -1.3879 -0.3878
 8931SOL     OW28212   1.527   1.611   2.911 -0.0831 -0.1211  0.5145
 8931SOL    HW128213   1.457   1.586   2.971 -0.4065 -2.1176 -0.6060
 8931SOL    HW228214   1.572   1.684   2.955 -0.9293 -0.8251  2.6614
 8932SOL     OW28215   4.032   2.172   2.706  0.4269  0.5817 -0.4633
 8932SOL    HW128216   3.999   2.248   2.659 -0.1494 -0.2178 -1.4176
 8932SOL    HW228217   4.035   2.103   2.639 -0.7953 -0.7149  0.7395
 8933SOL     OW28218   6.871   1.675   3.265  0.3602  0.2203 -0.0637
 8933SOL    HW128219   6.865   1.735   3.339 -0.0028 -1.4424  1.3246
 8933SOL    HW228220   6.802   1.703   3.205  1.5074  2.4102 -0.4524
 8934SOL     OW28221   5.609   2.885   3.730 -0.5687  0.0642  0.0700
 8934SOL    HW128222   5.610   2.843   3.645 -1.0898  0.2248 -0.0217
 8934SOL    HW228223   5.631   2.976   3.712  0.8640 -0.2164  0.3067
 8935SOL     OW28224   3.397   3.749   2.676  0.6513 -0.2672 -0.2716
 8935SOL    HW128225   3.331   3.785   2.616  0.2270 -2.0404 -0.9035
 8935SOL    HW228226   3.348   3.729   2.756  0.7859  0.0615 -0.1050
 8936SOL     OW28227   2.056   1.571   3.447 -0.1152  0.7698 -0.3460
 8936SOL    HW128228   2.023   1.652   3.408  0.5455  0.1970 -2.1915
 8936SOL    HW228229   2.024   1.502   3.389 -0.7618 -0.3364  1.2575
 8937SOL     OW28230   4.657   7.410   0.744  0.2701 -0.1322 -0.1433
 8937SOL    HW128231   4.656   7.433   0.651 -0.2465 -0.7898 -0.3020
 8937SOL    HW228232   4.565   7.414   0.771  0.5769  1.8480  0.8010
 8938SOL     OW28233   6.200   4.684   3.932  0.6905  0.0592 -0.3051
 8938SOL    HW128234   6.197   4.604   3.984  0.9140  0.7462  0.8024
 8938SOL    HW228235   6.293   4.697   3.914  0.8685  1.0830  1.1865
 8939SOL     OW28236   3.450   3.519   1.441  0.1455  0.1001 -0.2579
 8939SOL    HW128237   3.487   3.605   1.420  0.5447  0.0632  0.2636
 8939SOL    HW228238   3.356   3.529   1.426 -0.2105  1.4445  2.3369
 8940SOL     OW28239   0.632   7.266   6.263  0.4468  0.0634  0.2632
 8940SOL    HW128240   0.664   7.198   6.204 -1.6208 -0.4669 -0.3261
 8940SOL    HW228241   0.703   7.330   6.266  2.0061 -1.5370 -0.0455
 8941SOL     OW28242   1.556   5.027   3.527  0.1470 -0.1984  0.3408
 8941SOL    HW128243   1.512   4.970   3.465  0.5192 -0.0517 -0.0670
 8941SOL    HW228244   1.634   5.057   3.481  0.2369  0.2084  0.7443
 8942SOL     OW28245   6.980   5.978   6.077  0.5810  0.2830 -0.3885
 8942SOL    HW128246   6.898   6.000   6.033 -1.0411 -1.7920  1.3608
 8942SOL    HW228247   7.035   5.939   6.009 -0.3255  0.7025 -1.3762
 8943SOL     OW28248   4.205   1.506   7.070 -0.3806  0.2244  0.4772
 8943SOL    HW128249   4.249   1.431   7.030  1.8638  2.6952 -2.1173
 8943SOL    HW228250   4.124   1.517   7.021  0.5260  0.9375 -0.9261
 8944SOL     OW28251   6.508   0.818   3.943  0.0297 -0.1096 -0.7861
 8944SOL    HW128252   6.548   0.731   3.943 -0.4733 -0.3594  0.2043
 8944SOL    HW228253   6.434   0.809   4.002  0.1312  1.0661 -0.4697
 8945SOL     OW28254   5.864   1.712   3.953 -0.2176 -0.1837 -0.3997
 8945SOL    HW128255   5.817   1.771   4.012  0.5652  1.0832 -0.9913
 8945SOL    HW228256   5.931   1.767   3.913  1.3702 -1.7759 -0.0632
 8946SOL     OW28257   2.900   0.540   4.166 -0.1256  0.1623  0.0067
 8946SOL    HW128258   2.995   0.531   4.167 -0.1214 -0.3806 -1.7639
 8946SOL    HW228259   2.869   0.477   4.230  0.6759 -0.5445 -0.2726
 8947SOL     OW28260   4.785   1.144   0.569  0.5601 -0.1692 -0.2145
 8947SOL    HW128261   4.802   1.184   0.655 -2.5466  0.4945  0.1861
 8947SOL    HW228262   4.726   1.205   0.525 -0.1686 -1.8541 -1.7007
 8948SOL     OW28263   5.987   4.047   5.277  0.0627  0.0782 -0.4932
 8948SOL    HW128264   6.016   3.963   5.241 -2.1682 -1.2293  0.5724
 8948SOL    HW228265   6.066   4.085   5.315  0.9778 -1.9462 -0.2343
 8949SOL     OW28266   3.642   0.647   1.537  0.0131  0.1863  0.4261
 8949SOL    HW128267   3.608   0.561   1.563 -2.6189  0.7983 -0.7059
 8949SOL    HW228268   3.658   0.638   1.443 -0.9627  1.1123  0.1567
 8950SOL     OW28269   3.547   3.936   0.062 -0.4797  0.5416  0.5074
 8950SOL    HW128270   3.539   3.849   0.101 -0.1827 -0.5255 -1.6546
 8950SOL    HW228271   3.620   3.977   0.108 -0.8978 -0.1723  1.8506
 8951SOL     OW28272   4.775   1.770   0.247  0.0884  0.2359  0.0444
 8951SOL    HW128273   4.703   1.774   0.184 -0.5798  0.7878  0.8270
 8951SOL    HW228274   4.790   1.861   0.273  0.8192  0.0861  0.1660
 8952SOL     OW28275   3.717   4.448   1.950 -0.6326 -0.3905 -0.4484
 8952SOL    HW128276   3.684   4.389   1.882  1.0337  0.5829 -2.2279
 8952SOL    HW228277   3.713   4.535   1.910  1.9847  0.0176 -0.0365
 8953SOL     OW28278   7.625   2.856   2.383  0.2438  0.5167 -0.0091
 8953SOL    HW128279   7.720   2.856   2.392  0.2435  0.5769 -0.0026
 8953SOL    HW228280   7.602   2.766   2.360  0.2684  0.4159  0.3509
 8954SOL     OW28281   6.808   3.271   5.689 -0.2254 -0.1281  0.7359
 8954SOL    HW128282   6.747   3.271   5.615  0.7839  2.7146 -0.2467
 8954SOL    HW228283   6.884   3.320   5.657  0.4030  0.9072  3.5644
 8955SOL     OW28284   1.506   0.084   5.623  0.7640 -0.1976 -0.4109
 8955SOL    HW128285   1.469   0.004   5.585 -2.3775  0.2755  1.3047
 8955SOL    HW228286   1.510   0.066   5.717  0.5500  1.4415 -0.0636
 8956SOL     OW28287   0.958   1.186   7.467  0.2407 -0.8685 -0.2668
 8956SOL    HW128288   0.882   1.165   7.412 -0.1905 -1.8176  0.6457
 8956SOL    HW228289   0.978   1.277   7.447  0.4921 -1.3461 -2.4566
 8957SOL     OW28290   3.035   7.608   1.257  0.5457 -0.9269  0.1033
 8957SOL    HW128291   2.942   7.610   1.278  0.5123 -1.0676 -0.0267
 8957SOL    HW228292   3.075   7.670   1.317  0.2340 -0.1291 -0.4899
 8958SOL     OW28293   4.397   6.751   5.687  0.3923 -0.3570  0.0648
 8958SOL    HW128294   4.407   6.809   5.762  2.3602  0.9276 -1.1025
 8958SOL    HW228295   4.306   6.762   5.660  0.2873  0.9358  0.8518
 8959SOL     OW28296   6.156   2.714   1.850 -0.1527 -0.4739 -0.4131
 8959SOL    HW128297   6.077   2.719   1.904  0.8065  1.9444  0.9269
 8959SOL    HW228298   6.139   2.772   1.776 -0.4898 -1.8037 -1.4145
 8960SOL     OW28299   3.404   1.294   3.110 -0.4985  0.3766 -0.0620
 8960SOL    HW128300   3.427   1.208   3.077 -1.5788  0.3516 -0.8300
 8960SOL    HW228301   3.465   1.311   3.181  0.0179 -0.8201 -0.2091
 8961SOL     OW28302   6.735   2.070   0.544  0.7634 -0.4202 -0.2322
 8961SOL    HW128303   6.693   2.148   0.508  1.4289 -0.2763 -0.7163
 8961SOL    HW228304   6.815   2.104   0.585  0.6374 -0.7436  0.2893
 8962SOL     OW28305   2.578   7.776   4.583 -0.3207  0.1051 -0.2484
 8962SOL    HW128306   2.608   7.730   4.504  2.3527 -2.3052  1.9312
 8962SOL    HW228307   2.487   7.747   4.594 -0.1856 -0.8944 -1.5068
 8963SOL     OW28308   2.027   2.007   2.090  0.0797 -0.8457 -0.0548
 8963SOL    HW128309   1.987   1.920   2.092 -1.2824 -0.2231  0.9362
 8963SOL    HW228310   1.956   2.065   2.061  0.8277  0.0179 -0.1836
 8964SOL     OW28311   2.031   5.616   1.241 -0.9241  0.1633 -0.4827
 8964SOL    HW128312   2.020   5.587   1.150  0.7695 -2.7498  0.1221
 8964SOL    HW228313   2.124   5.605   1.259 -1.1366  1.1075  1.4954
 8965SOL     OW28314   7.514   0.703   0.044  0.0650  0.6528  0.3979
 8965SOL    HW128315   7.589   0.760   0.055  0.0499  0.7457  0.0328
 8965SOL    HW228316   7.455   0.725   0.116 -0.1853  1.4804 -0.0496
 8966SOL     OW28317   0.475   2.258   4.725  0.3555  0.2767  0.4521
 8966SOL    HW128318   0.403   2.251   4.662  1.1668  0.7078 -0.5577
 8966SOL    HW228319   0.482   2.170   4.764  0.0903 -0.1090 -0.3527
 8967SOL     OW28320   6.150   0.356   6.272  0.2917  0.3045  0.8759
 8967SOL    HW128321   6.173   0.263   6.281  0.4670  0.2732  0.1390
 8967SOL    HW228322   6.054   0.357   6.279  0.2446 -0.0043  0.3619
 8968SOL     OW28323   5.287   5.637   6.236  0.7399  0.1245 -0.2125
 8968SOL    HW128324   5.382   5.637   6.250  0.7781 -0.2315 -0.4575
 8968SOL    HW228325   5.277   5.667   6.146  0.6493 -0.3984 -0.3767
 8969SOL     OW28326   4.230   3.345   0.884  0.2807  0.0450 -0.6791
 8969SOL    HW128327   4.175   3.403   0.831 -0.8162 -0.6663 -0.3494
 8969SOL    HW228328   4.319   3.365   0.856  0.1671  3.3501  0.8323
 8970SOL     OW28329   4.953   7.634   1.405 -0.5529 -0.0616 -0.7093
 8970SOL    HW128330   4.982   7.565   1.464  0.5518  0.6797 -0.3625
 8970SOL    HW228331   4.891   7.686   1.456  1.7475  1.6732  0.5178
 8971SOL     OW28332   4.180   7.558   0.968  0.0091  0.4225  0.0888
 8971SOL    HW128333   4.116   7.486   0.967  0.0774  0.3643 -0.1914
 8971SOL    HW228334   4.131   7.633   1.003 -0.5437  0.6755 -1.1408
 8972SOL     OW28335   4.342   4.145   7.550  0.1285 -0.1996  0.4273
 8972SOL    HW128336   4.304   4.060   7.575  1.8378 -0.8865  0.7897
 8972SOL    HW228337   4.418   4.123   7.498  0.4553  1.1391  0.3112
 8973SOL     OW28338   1.260   3.260   4.679 -0.6764  0.1412  0.3490
 8973SOL    HW128339   1.339   3.226   4.721  1.7349  0.7464 -3.2061
 8973SOL    HW228340   1.212   3.182   4.650  0.6865 -0.2932 -0.8302
 8974SOL     OW28341   6.157   7.691   3.510 -0.3791  0.7006  0.1120
 8974SOL    HW128342   6.220   7.619   3.500 -0.1579  0.7151  1.2738
 8974SOL    HW228343   6.080   7.662   3.462 -0.1410 -0.1345  0.2185
 8975SOL     OW28344   7.666   1.437   7.676 -0.1277  0.2506 -0.3519
 8975SOL    HW128345   7.691   1.479   7.759 -0.9566 -0.9175  0.5073
 8975SOL    HW228346   7.713   1.354   7.677 -2.1489 -0.9444  0.2076
 8976SOL     OW28347   0.915   0.608   6.530 -0.1247 -0.4216  0.4751
 8976SOL    HW128348   0.870   0.574   6.607  0.9360 -1.3201  0.7201
 8976SOL    HW228349   0.983   0.543   6.510 -0.4894 -0.3192 -1.3365
 8977SOL     OW28350   4.325   6.225   3.393 -0.2227 -0.5082  0.4089
 8977SOL    HW128351   4.409   6.208   3.438  0.9161  0.0695 -1.4044
 8977SOL    HW228352   4.266   6.158   3.427  0.9306 -0.8863  1.7934
 8978SOL     OW28353   6.381   5.067   2.207  0.1680 -0.3685 -0.5375
 8978SOL    HW128354   6.382   5.013   2.128 -0.8547 -1.8035  0.3885
 8978SOL    HW228355   6.304   5.123   2.198 -0.5289 -1.2312 -0.1470
 8979SOL     OW28356   5.705   0.693   0.344  0.4970 -0.1947 -0.4806
 8979SOL    HW128357   5.731   0.607   0.378  0.1907  0.2993  1.0774
 8979SOL    HW228358   5.755   0.755   0.395 -1.7238  0.6776  0.7667
 8980SOL     OW28359   5.817   1.948   4.111 -0.2938 -0.0659  0.1032
 8980SOL    HW128360   5.750   1.994   4.059 -0.3206  1.1631  1.1587
 8980SOL    HW228361   5.860   2.018   4.160  0.6255 -1.0445  0.7240
 8981SOL     OW28362   2.559   1.065   4.021 -0.0295 -0.0214 -0.2170
 8981SOL    HW128363   2.576   1.148   3.976 -0.4662  1.6440  2.4487
 8981SOL    HW228364   2.619   1.065   4.095 -0.8572 -1.5542  0.5014
 8982SOL     OW28365   6.657   3.743   4.507 -0.2150 -0.5388 -0.3033
 8982SOL    HW128366   6.733   3.685   4.517  0.8186  0.7050 -0.5308
 8982SOL    HW228367   6.693   3.821   4.464 -0.7480  1.6958  2.8909
 8983SOL     OW28368   1.508   0.437   7.622 -0.0786  0.2062 -0.2776
 8983SOL    HW128369   1.521   0.350   7.584 -2.1906  0.5097 -1.8375
 8983SOL    HW228370   1.583   0.448   7.680  0.5395 -2.4240 -0.4288
 8984SOL     OW28371   7.044   7.264   3.766  0.9511  0.2872  0.3783
 8984SOL    HW128372   6.961   7.289   3.807 -0.6897 -1.6727 -1.5228
 8984SOL    HW228373   7.061   7.335   3.704  0.2206  0.3225  0.1981
 8985SOL     OW28374   4.755   6.261   0.060 -0.4833  0.4261  0.1336
 8985SOL    HW128375   4.782   6.353   0.062  0.0262  0.2903  1.6020
 8985SOL    HW228376   4.675   6.258   0.113 -0.5661  0.0485 -0.0101
 8986SOL     OW28377   1.389   6.866   1.161  0.1266 -0.1295 -0.2733
 8986SOL    HW128378   1.408   6.922   1.236  0.5538  0.7469 -1.0123
 8986SOL    HW228379   1.378   6.779   1.198 -0.8887  0.4905  0.9414
 8987SOL     OW28380   2.964   3.464   4.894 -0.4503  0.2516 -0.0267
 8987SOL    HW128381   3.040   3.509   4.856 -0.1970 -1.0772 -1.1390
 8987SOL    HW228382   3.000   3.419   4.971 -0.0467 -0.4872 -0.6263
 8988SOL     OW28383   4.728   2.138   4.867 -0.1792  0.1159 -0.0863
 8988SOL    HW128384   4.723   2.226   4.904  0.2349 -0.0964  0.4995
 8988SOL    HW228385   4.712   2.150   4.774 -0.7166  0.7367  0.0765
 8989SOL     OW28386   0.910   7.808   7.721 -0.7770  0.2385 -0.5757
 8989SOL    HW128387   0.842   7.805   7.789 -0.3565  0.4879 -0.1369
 8989SOL    HW228388   0.990   7.829   7.768 -0.2690 -0.6936 -1.0067
 8990SOL     OW28389   7.804   0.868   5.741  0.2236  0.3316  0.3658
 8990SOL    HW128390   7.868   0.903   5.804  1.4902 -1.0751 -0.0892
 8990SOL    HW228391   7.803   0.932   5.670  0.7638  0.6252  0.6154
 8991SOL     OW28392   0.536   6.918   2.193 -1.1858 -0.2620 -0.1144
 8991SOL    HW128393   0.450   6.960   2.195 -1.5753 -1.0362 -0.3454
 8991SOL    HW228394   0.579   6.952   2.115 -1.0206  0.6130  0.3400
 8992SOL     OW28395   7.960   6.748   5.864  0.2755  0.2334  0.0897
 8992SOL    HW128396   8.028   6.796   5.817  0.9159 -0.9456 -0.2191
 8992SOL    HW228397   8.005   6.673   5.903 -0.9729 -1.1267 -0.9308
 8993SOL     OW28398   0.927   6.760   7.803  0.3738 -0.2335  0.3161
 8993SOL    HW128399   0.938   6.750   7.897  2.2016  2.1681  0.4289
 8993SOL    HW228400   0.963   6.679   7.766 -0.4803 -1.2512  1.6259
 8994SOL     OW28401   2.872   7.685   3.700 -0.1471 -0.0587 -0.4829
 8994SOL    HW128402   2.964   7.711   3.707 -0.0153 -0.5938 -0.1931
 8994SOL    HW228403   2.873   7.590   3.702 -0.8164 -0.0771  1.2823
 8995SOL     OW28404   1.544   7.397   4.687  0.7206 -0.6378  0.7141
 8995SOL    HW128405   1.566   7.434   4.772  2.7684 -1.4587  0.6049
 8995SOL    HW228406   1.449   7.385   4.689  0.6744 -0.2061  2.6863
 8996SOL     OW28407   2.086   3.848   7.993  0.3169  0.0105 -0.0133
 8996SOL    HW128408   2.143   3.847   7.916  0.9410  0.4749  0.4261
 8996SOL    HW228409   2.121   3.779   8.050 -2.4322 -3.0267 -1.6879
 8997SOL     OW28410   1.039   3.028   6.176  0.6093 -0.4379 -0.5547
 8997SOL    HW128411   1.112   3.001   6.231  1.5046 -1.4577 -2.1553
 8997SOL    HW228412   0.994   3.095   6.227  0.8056 -1.9770  1.8096
 8998SOL     OW28413   6.420   1.085   3.533 -0.4397  0.2523  0.0754
 8998SOL    HW128414   6.453   1.175   3.541 -2.0193  1.1377 -2.3258
 8998SOL    HW228415   6.334   1.094   3.492 -0.8521 -2.3489  0.1739
 8999SOL     OW28416   7.528   1.401   5.881 -0.2314  0.2912  0.4314
 8999SOL    HW128417   7.496   1.434   5.965  0.5141  1.0808  0.4208
 8999SOL    HW228418   7.449   1.369   5.837 -0.6686  0.1078  1.3190
 9000SOL     OW28419   5.319   1.758   2.058 -0.1368 -0.1458 -0.2970
 9000SOL    HW128420   5.398   1.742   2.110 -1.8563 -0.7422  2.2664
 9000SOL    HW228421   5.291   1.671   2.030 -0.7230 -0.0891  0.1075
 9001SOL     OW28422   1.957   6.849   2.719  0.5472  0.5417  0.2138
 9001SOL    HW128423   1.913   6.902   2.785 -0.2717  0.9857 -0.6677
 9001SOL    HW228424   2.051   6.864   2.735  0.3471  1.2395  0.7937
 9002SOL     OW28425   1.361   7.989   7.778  0.3295 -0.3006  0.2974
 9002SOL    HW128426   1.404   8.008   7.861  1.1142 -0.2091 -0.1197
 9002SOL    HW228427   1.328   8.073   7.748  0.5723 -0.2295  0.2283
 9003SOL     OW28428   6.929   2.959   1.573  0.4403 -0.2025 -0.3343
 9003SOL    HW128429   6.878   2.992   1.500  1.7930  0.5859 -0.9757
 9003SOL    HW228430   6.947   2.868   1.552 -1.1120 -0.6424  0.1589
 9004SOL     OW28431   3.788   6.594   0.779  0.7789  0.2245  0.2608
 9004SOL    HW128432   3.829   6.560   0.699  0.7662 -0.4636  0.5376
 9004SOL    HW228433   3.709   6.541   0.790  0.9831  0.0536  0.9341
 9005SOL     OW28434   7.750   4.212   5.837  0.1839 -0.6247 -0.5179
 9005SOL    HW128435   7.725   4.266   5.762  1.9143  1.3149  0.2029
 9005SOL    HW228436   7.765   4.274   5.908 -0.1231 -2.2921  1.1116
 9006SOL     OW28437   6.289   1.428   5.626  0.4176 -0.0043 -0.3038
 9006SOL    HW128438   6.339   1.507   5.643  1.8287 -0.7902 -0.6686
 9006SOL    HW228439   6.299   1.375   5.706  1.5294 -0.8540 -0.9931
 9007SOL     OW28440   5.805   4.869   5.000  0.1075 -0.1199 -0.6069
 9007SOL    HW128441   5.888   4.915   4.990  0.3317 -0.3872 -0.0288
 9007SOL    HW228442   5.826   4.777   4.985  0.3002 -0.4346  1.2849
 9008SOL     OW28443   7.001   3.927   7.752 -0.0427  0.0168 -0.0229
 9008SOL    HW128444   6.934   3.993   7.732  0.4135  0.5748  0.2467
 9008SOL    HW228445   7.061   3.930   7.678 -1.3592 -1.8990 -1.2416
 9009SOL     OW28446   5.458   4.075   2.365  0.2345  0.5870 -0.1138
 9009SOL    HW128447   5.480   3.983   2.384  2.5149  0.8791 -0.9578
 9009SOL    HW228448   5.453   4.116   2.451  3.3448  0.4550  0.2546
 9010SOL     OW28449   0.875   4.719   0.293 -0.0664 -0.1501  0.2851
 9010SOL    HW128450   0.795   4.769   0.277  1.1730  1.1639 -2.3746
 9010SOL    HW228451   0.919   4.716   0.208  1.9325 -2.2711  1.2905
 9011SOL     OW28452   4.743   3.663   1.358 -0.0084  0.4648 -0.3201
 9011SOL    HW128453   4.648   3.676   1.351 -0.2958 -1.4591 -0.6171
 9011SOL    HW228454   4.753   3.605   1.434  0.9714  0.9049 -0.1072
 9012SOL     OW28455   3.940   0.649   4.001 -0.4093 -0.4907 -0.4227
 9012SOL    HW128456   4.010   0.584   4.013  0.8392  0.7211 -0.9149
 9012SOL    HW228457   3.912   0.671   4.090 -0.9713 -1.7885 -0.2498
 9013SOL     OW28458   0.857   4.752   3.751 -0.0821 -0.0416 -0.7433
 9013SOL    HW128459   0.813   4.836   3.759  0.2357  0.2440 -1.8877
 9013SOL    HW228460   0.879   4.744   3.658  0.6736 -0.9924 -0.5052
 9014SOL     OW28461   0.223   2.695   6.132 -0.1314  0.5360  0.0278
 9014SOL    HW128462   0.191   2.702   6.222  0.7905 -1.0494  0.5243
 9014SOL    HW228463   0.288   2.766   6.125  1.6303 -0.8171  1.4997
 9015SOL     OW28464   2.693   3.323   7.504  0.5147 -0.6621  0.1865
 9015SOL    HW128465   2.753   3.251   7.527 -0.7961 -2.1972 -0.9504
 9015SOL    HW228466   2.716   3.343   7.413 -0.3248 -0.8848 -0.0759
 9016SOL     OW28467   5.024   2.129   1.548  0.6133 -0.1659 -0.2946
 9016SOL    HW128468   4.945   2.181   1.561 -0.3712 -1.2819 -1.5955
 9016SOL    HW228469   5.016   2.056   1.610  0.4376 -0.4845 -0.6916
 9017SOL     OW28470   0.300   2.206   4.533 -0.3036 -0.3547  0.3755
 9017SOL    HW128471   0.232   2.272   4.520  0.1480  0.1252  0.3894
 9017SOL    HW228472   0.253   2.126   4.552 -0.9041 -0.2994 -0.7864
 9018SOL     OW28473   3.393   5.428   2.727  0.2436  0.1837  0.1915
 9018SOL    HW128474   3.460   5.359   2.731  0.5412  0.2826 -1.9049
 9018SOL    HW228475   3.438   5.508   2.752  0.4237 -0.0402  0.5917
 9019SOL     OW28476   4.170   6.462   7.812  0.0050 -0.4751  0.5110
 9019SOL    HW128477   4.261   6.450   7.839  0.3576 -1.7481 -1.0601
 9019SOL    HW228478   4.176   6.516   7.734 -0.7360  0.6872  1.2409
 9020SOL     OW28479   2.454   5.809   6.009 -0.1645  0.3495  0.4992
 9020SOL    HW128480   2.407   5.804   5.926 -1.5202 -0.0796  1.2708
 9020SOL    HW228481   2.542   5.777   5.989 -0.0869  1.4239 -1.0345
 9021SOL     OW28482   2.759   6.513   4.883  0.5319 -0.6705 -0.0356
 9021SOL    HW128483   2.787   6.558   4.803  0.0854 -2.3762 -1.2246
 9021SOL    HW228484   2.825   6.536   4.948  1.5777 -0.1834 -1.2231
 9022SOL     OW28485   8.039   6.423   6.560  0.2555 -0.0295  0.1511
 9022SOL    HW128486   8.053   6.505   6.607 -1.8148 -0.2199  1.2127
 9022SOL    HW228487   7.946   6.406   6.568  0.5606 -2.3108 -0.3738
 9023SOL     OW28488   1.717   3.350   4.837 -0.2477 -0.1594 -0.1053
 9023SOL    HW128489   1.803   3.330   4.800 -0.4569  0.1300 -0.7652
 9023SOL    HW228490   1.718   3.310   4.924 -0.4098 -2.4651 -1.0958
 9024SOL     OW28491   7.831   2.079   3.356 -0.4201  0.3326 -0.0053
 9024SOL    HW128492   7.824   2.168   3.321  1.1156  0.9750  1.2272
 9024SOL    HW228493   7.899   2.085   3.423 -1.2216 -1.4851  1.0360
 9025SOL     OW28494   0.183   7.608   2.642  0.2416 -0.1922  0.3612
 9025SOL    HW128495   0.242   7.658   2.698  0.3464 -0.4778  0.5071
 9025SOL    HW228496   0.160   7.531   2.694 -0.7884  0.2358  0.5711
 9026SOL     OW28497   7.437   4.759   5.297  0.4851  0.2603  0.0474
 9026SOL    HW128498   7.363   4.805   5.257 -1.0046 -1.0383  1.2063
 9026SOL    HW228499   7.423   4.768   5.391  2.4375  0.9177  0.3157
 9027SOL     OW28500   3.077   0.416   1.353  0.3713  0.2385  0.4141
 9027SOL    HW128501   2.988   0.404   1.320  0.5325 -1.1690  0.4186
 9027SOL    HW228502   3.131   0.359   1.298  1.1774  0.5829  0.8245
 9028SOL     OW28503   3.018   2.566   4.636 -0.7026 -0.6123 -0.1583
 9028SOL    HW128504   2.987   2.479   4.611  2.4516 -1.8722 -0.1720
 9028SOL    HW228505   3.049   2.555   4.726 -0.3667  0.5243 -0.1206
 9029SOL     OW28506   7.669   4.501   4.609  0.2996 -0.6620  0.0434
 9029SOL    HW128507   7.645   4.549   4.688 -1.0012  0.0627 -0.7579
 9029SOL    HW228508   7.681   4.568   4.542 -0.7965 -1.3730 -0.9143
 9030SOL     OW28509   0.096   7.049   2.006  0.0826 -0.2566  0.3513
 9030SOL    HW128510   0.111   6.993   1.930 -0.7837 -1.6778  1.1800
 9030SOL    HW228511   0.026   7.109   1.978 -0.5586 -1.0732  0.1570
 9031SOL     OW28512   4.374   2.362   7.995  0.0335  0.2329  0.5608
 9031SOL    HW128513   4.426   2.291   7.958  1.2723  0.3219  2.0551
 9031SOL    HW228514   4.303   2.318   8.042 -0.4841  0.0742 -0.3453
 9032SOL     OW28515   4.550   0.915   3.785 -0.6203 -0.8987  0.0563
 9032SOL    HW128516   4.625   0.908   3.726 -0.7958  1.4973 -0.5526
 9032SOL    HW228517   4.507   0.830   3.778  1.8783 -2.2974  0.2851
 9033SOL     OW28518   0.721   5.983   3.991  0.0547 -0.0366  0.2693
 9033SOL    HW128519   0.706   6.044   4.063  0.0361  1.4754 -0.9671
 9033SOL    HW228520   0.802   5.938   4.014  0.4170  0.9177  0.9067
 9034SOL     OW28521   5.955   5.154   2.305 -0.2332  0.3349 -0.1013
 9034SOL    HW128522   5.978   5.132   2.215 -1.6819 -2.7050  0.1559
 9034SOL    HW228523   6.022   5.112   2.358 -0.2977  0.7466  0.3135
 9035SOL     OW28524   0.103   5.879   8.055 -0.6422 -0.2027  0.0107
 9035SOL    HW128525   0.131   5.952   8.110 -1.1342  0.2478 -0.3223
 9035SOL    HW228526   0.150   5.892   7.972 -3.2675  1.7399 -1.3100
 9036SOL     OW28527   3.105   8.002   3.423 -0.0925 -0.2810 -0.3697
 9036SOL    HW128528   3.145   7.923   3.387  0.9217 -0.5404  1.2571
 9036SOL    HW228529   3.057   7.973   3.500  0.6510  0.7344  0.5012
 9037SOL     OW28530   4.081   1.249   3.035  0.2191 -0.0460  0.2487
 9037SOL    HW128531   4.172   1.251   3.004  0.7744 -3.1928  1.3085
 9037SOL    HW228532   4.080   1.179   3.101 -2.9011  0.1884  0.5770
 9038SOL     OW28533   1.745   4.349   3.575  0.0097 -0.1312 -0.4606
 9038SOL    HW128534   1.728   4.433   3.533  1.1894  1.1441  1.4429
 9038SOL    HW228535   1.737   4.367   3.669  1.3971 -1.8515  0.0401
 9039SOL     OW28536   3.548   5.333   7.856 -0.4027 -0.1704 -0.2320
 9039SOL    HW128537   3.547   5.422   7.892 -0.8625  0.1950 -1.0972
 9039SOL    HW228538   3.623   5.291   7.897  0.4584  0.9650 -0.5743
 9040SOL     OW28539   6.916   1.857   1.148 -0.2930 -0.0261  0.7566
 9040SOL    HW128540   6.950   1.834   1.234 -1.1940 -0.2971  1.0501
 9040SOL    HW228541   6.834   1.902   1.166 -0.9650 -0.9195  0.0154
 9041SOL     OW28542   2.583   2.783   0.751 -0.1080 -0.1018 -0.3676
 9041SOL    HW128543   2.649   2.779   0.682 -1.2377  0.9177 -1.5655
 9041SOL    HW228544   2.547   2.695   0.755 -0.2843 -0.0863 -1.3600
 9042SOL     OW28545   7.477   1.008   2.828 -0.3614 -0.0893 -0.0673
 9042SOL    HW128546   7.440   0.981   2.744 -0.8341  0.2182  0.0319
 9042SOL    HW228547   7.536   0.937   2.853 -0.6903 -0.4727 -0.3607
 9043SOL     OW28548   3.417   2.590   5.405 -0.1757 -0.7926  0.7368
 9043SOL    HW128549   3.492   2.551   5.362  0.6028  1.6402 -0.2591
 9043SOL    HW228550   3.453   2.636   5.481 -0.4117  1.2736 -0.3233
 9044SOL     OW28551   5.125   1.136   2.031 -1.1986 -0.3318  0.5127
 9044SOL    HW128552   5.123   1.224   2.069 -1.3752  0.3471 -0.9955
 9044SOL    HW228553   5.037   1.124   1.995 -0.3303  0.1109 -1.9138
 9045SOL     OW28554   1.295   3.329   3.185 -0.1887 -0.1260  0.2126
 9045SOL    HW128555   1.206   3.363   3.199  0.7520  3.3616 -1.2082
 9045SOL    HW228556   1.295   3.300   3.094 -0.1154 -1.0737  0.5077
 9046SOL     OW28557   5.869   0.862   0.465  0.0061 -0.4966  0.0903
 9046SOL    HW128558   5.914   0.905   0.538 -0.8459  1.2071 -0.3185
 9046SOL    HW228559   5.926   0.876   0.389  0.4859 -1.5283  0.2402
 9047SOL     OW28560   1.991   3.290   5.022 -0.4677 -0.3321  0.3532
 9047SOL    HW128561   2.056   3.358   5.041 -1.4439  0.4124  1.1937
 9047SOL    HW228562   2.039   3.222   4.976  0.3778  1.3514 -1.4035
 9048SOL     OW28563   4.423   0.564   2.339  0.5367 -0.1936 -0.5688
 9048SOL    HW128564   4.407   0.653   2.309  1.8127  0.3110  0.1429
 9048SOL    HW228565   4.340   0.535   2.377  0.5291  1.3262  0.6815
 9049SOL     OW28566   2.014   4.565   5.065  0.1235 -0.3657  0.0729
 9049SOL    HW128567   2.007   4.580   5.160  0.0700 -0.2410  0.0494
 9049SOL    HW228568   2.049   4.476   5.058  1.0318 -0.0412  0.2236
 9050SOL     OW28569   5.622   2.155   5.322 -0.0663 -0.0087 -0.4009
 9050SOL    HW128570   5.689   2.223   5.327 -0.5231  1.0490 -4.8727
 9050SOL    HW228571   5.543   2.195   5.357  0.6436  0.0916  1.1893
 9051SOL     OW28572   2.315   7.727   5.818  0.1373 -0.3682 -0.4623
 9051SOL    HW128573   2.354   7.814   5.828 -1.7648  0.4584  0.4310
 9051SOL    HW228574   2.336   7.682   5.900  0.3416 -0.4114 -0.5385
 9052SOL     OW28575   6.280   4.431   5.897 -0.8803  0.1051 -0.8037
 9052SOL    HW128576   6.280   4.475   5.982 -1.8499  0.4526 -0.9695
 9052SOL    HW228577   6.318   4.496   5.837 -0.9654  0.1702 -0.7873
 9053SOL     OW28578   4.480   0.898   6.128  0.2760 -0.2453  0.2140
 9053SOL    HW128579   4.494   0.810   6.161  3.0780  0.7374  2.0481
 9053SOL    HW228580   4.562   0.921   6.084 -0.5955  1.2489 -0.7311
 9054SOL     OW28581   3.352   2.505   2.284 -0.1776 -0.1221 -0.2438
 9054SOL    HW128582   3.358   2.450   2.362  0.2128 -0.7995 -0.7407
 9054SOL    HW228583   3.276   2.471   2.237  0.7857 -1.0655 -1.1661
 9055SOL     OW28584   4.187   6.733   7.852 -0.2238 -0.1977  0.2110
 9055SOL    HW128585   4.120   6.670   7.877 -3.2234  2.1167 -1.3324
 9055SOL    HW228586   4.152   6.775   7.774  1.5612  3.3176  1.1100
 9056SOL     OW28587   4.329   6.624   2.248 -0.1326  0.4979 -0.4263
 9056SOL    HW128588   4.378   6.649   2.326  0.5241  0.4272 -0.8124
 9056SOL    HW228589   4.393   6.583   2.190 -0.6276  0.4607 -0.9671
 9057SOL     OW28590   0.072   4.049   2.787  0.8116  0.5538 -0.5313
 9057SOL    HW128591   0.085   4.137   2.821 -0.6679  0.0188  1.6528
 9057SOL    HW228592   0.088   3.992   2.862  0.5841 -0.9721 -1.5963
 9058SOL     OW28593   5.922   2.241   6.530 -0.1762  0.0567  0.2887
 9058SOL    HW128594   5.942   2.307   6.597  0.1320  0.5532 -0.2879
 9058SOL    HW228595   6.003   2.191   6.521  0.0870  0.6036 -0.4016
 9059SOL     OW28596   0.874   7.987   6.619  0.1505  0.1858 -0.0671
 9059SOL    HW128597   0.906   7.973   6.529  0.6472  0.0080  0.1339
 9059SOL    HW228598   0.900   8.077   6.640  2.1768 -0.5331  0.7504
 9060SOL     OW28599   1.487   2.066   0.470 -0.1688 -0.1665  0.3347
 9060SOL    HW128600   1.470   2.120   0.393  0.5634 -2.2748 -1.3958
 9060SOL    HW228601   1.417   2.001   0.471  0.5541 -0.9622  0.6813
 9061SOL     OW28602   4.896   6.702   2.941 -0.4407 -0.3746 -0.1534
 9061SOL    HW128603   4.835   6.730   3.010  0.3658 -1.3048  0.9837
 9061SOL    HW228604   4.897   6.774   2.878 -0.1340  1.1463  1.5219
 9062SOL     OW28605   3.036   2.111   0.416 -0.2109 -0.5079 -0.3265
 9062SOL    HW128606   3.074   2.164   0.486 -0.2994 -1.6038  0.5598
 9062SOL    HW228607   3.111   2.069   0.374 -0.2014 -0.2537 -0.5688
 9063SOL     OW28608   7.356   0.333   5.640  0.0452 -0.0379  0.0261
 9063SOL    HW128609   7.437   0.339   5.690 -0.3854 -2.1709  1.1079
 9063SOL    HW228610   7.296   0.284   5.697 -2.0287  1.4425 -0.7350
 9064SOL     OW28611   0.374   0.532   5.541 -0.6188 -0.1284  0.2528
 9064SOL    HW128612   0.351   0.591   5.613 -1.8496  0.3451 -0.5092
 9064SOL    HW228613   0.470   0.536   5.538 -0.6098  0.8732  1.0130
 9065SOL     OW28614   6.652   4.260   4.466  0.0752 -0.0184 -0.5916
 9065SOL    HW128615   6.617   4.301   4.545 -0.6566 -0.3444 -0.7450
 9065SOL    HW228616   6.580   4.206   4.432  0.5096 -0.1862 -1.2663
 9066SOL     OW28617   2.136   0.848   7.767  0.1817  0.4895  0.0955
 9066SOL    HW128618   2.085   0.816   7.692  0.1491  1.6420 -0.4026
 9066SOL    HW228619   2.134   0.777   7.830  1.8031 -1.2920 -1.7402
 9067SOL     OW28620   1.119   6.210   3.783  0.3668  0.2654 -0.0467
 9067SOL    HW128621   1.175   6.133   3.790  0.7069  0.5236  0.0540
 9067SOL    HW228622   1.061   6.204   3.859 -0.4268 -0.5363 -0.6750
 9068SOL     OW28623   7.102   7.098   7.516 -0.1575  0.6149  0.4499
 9068SOL    HW128624   7.100   7.189   7.548 -3.0507  0.2970  1.4566
 9068SOL    HW228625   7.046   7.098   7.439  1.6222  0.0705 -0.8857
 9069SOL     OW28626   4.712   2.582   1.968 -0.1835  0.1534  0.5858
 9069SOL    HW128627   4.666   2.530   2.034 -0.8566 -1.5048 -1.0854
 9069SOL    HW228628   4.787   2.528   1.943 -0.4488  0.2971 -0.6150
 9070SOL     OW28629   7.904   2.838   1.385 -0.0792 -0.1967 -0.3307
 9070SOL    HW128630   7.943   2.774   1.325  1.6752  0.6062 -0.0913
 9070SOL    HW228631   7.858   2.784   1.449  0.1440 -1.1671 -0.9553
 9071SOL     OW28632   2.875   6.867   7.600 -0.0753 -0.6219  0.0561
 9071SOL    HW128633   2.897   6.789   7.549 -1.8029 -0.7376 -0.5472
 9071SOL    HW228634   2.780   6.874   7.594  0.1061  2.1912 -0.8956
 9072SOL     OW28635   6.029   4.184   3.922 -0.2484  0.1701 -0.6853
 9072SOL    HW128636   6.054   4.135   3.843  3.0241 -2.1908  1.5672
 9072SOL    HW228637   6.112   4.220   3.954 -1.0688 -0.6311  2.6623
 9073SOL     OW28638   3.532   3.757   1.387  0.1375  0.5320 -0.0082
 9073SOL    HW128639   3.557   3.801   1.468 -0.6187  0.5359  0.2312
 9073SOL    HW228640   3.574   3.809   1.318  0.4446  0.7722  0.3557
 9074SOL     OW28641   3.100   7.337   7.626  0.6427  0.0860 -0.2408
 9074SOL    HW128642   3.120   7.313   7.716  0.5271 -3.5728 -1.0507
 9074SOL    HW228643   3.004   7.335   7.622  0.6468  0.2833 -0.4294
 9075SOL     OW28644   1.447   5.750   6.200  0.6493 -0.3208  0.1662
 9075SOL    HW128645   1.470   5.807   6.274  2.1333 -0.1610 -0.3978
 9075SOL    HW228646   1.508   5.677   6.206 -0.0681 -0.9595 -0.1697
 9076SOL     OW28647   5.829   1.772   2.213 -0.1767 -0.1743  0.5191
 9076SOL    HW128648   5.875   1.732   2.287  1.2846  2.2480  1.0076
 9076SOL    HW228649   5.872   1.856   2.200 -3.7161  1.7727  0.1902
 9077SOL     OW28650   1.548   3.630   7.250 -0.2588  0.2319  0.2831
 9077SOL    HW128651   1.508   3.624   7.163 -0.0059  1.2069  0.0853
 9077SOL    HW228652   1.473   3.628   7.310 -0.6898  2.1788 -0.0871
 9078SOL     OW28653   3.166   7.611   7.625 -0.0991  1.0247  0.3000
 9078SOL    HW128654   3.125   7.548   7.566 -0.2178  1.6396 -0.2832
 9078SOL    HW228655   3.241   7.563   7.662  0.6865  0.9920 -1.2399
 9079SOL     OW28656   1.689   4.312   5.677  0.3082  0.3182 -0.6446
 9079SOL    HW128657   1.727   4.361   5.750  0.9028 -0.9465 -0.0789
 9079SOL    HW228658   1.615   4.366   5.648 -0.3424  0.5593  1.2999
 9080SOL     OW28659   2.674   5.371   2.089 -0.8395  0.1075  0.2103
 9080SOL    HW128660   2.601   5.429   2.068 -2.1568 -0.7454  2.1089
 9080SOL    HW228661   2.719   5.414   2.161 -0.3057 -0.0421 -0.0284
 9081SOL     OW28662   6.054   0.559   0.947  0.2054 -0.7169 -0.2036
 9081SOL    HW128663   6.011   0.640   0.918 -1.3809 -1.5112 -0.1581
 9081SOL    HW228664   6.041   0.557   1.042  4.1499  1.1530  0.5992
 9082SOL     OW28665   5.331   7.910   0.547  0.2412  0.0920 -0.0678
 9082SOL    HW128666   5.265   7.846   0.574  0.4454  0.4417  1.3541
 9082SOL    HW228667   5.355   7.884   0.458 -0.8474 -0.8262 -0.1197
 9083SOL     OW28668   7.063   7.956   0.151  0.5707 -0.2725 -0.1187
 9083SOL    HW128669   7.121   7.952   0.227 -0.6561  0.1992  0.8724
 9083SOL    HW228670   7.038   7.865   0.136  0.8981 -0.3817 -0.0116
 9084SOL     OW28671   5.843   3.061   6.230 -0.5875 -0.8829  0.3482
 9084SOL    HW128672   5.823   3.031   6.318  1.1264  0.8466  1.3881
 9084SOL    HW228673   5.930   3.027   6.212  1.4716  3.1388  1.5872
 9085SOL     OW28674   4.514   4.930   6.716 -0.1246  0.1825 -0.0993
 9085SOL    HW128675   4.544   4.846   6.749  0.0524  0.8882  1.6519
 9085SOL    HW228676   4.590   4.987   6.722 -0.5256  0.7435 -0.2345
 9086SOL     OW28677   5.576   2.139   2.392  0.7760 -0.1247 -0.0173
 9086SOL    HW128678   5.662   2.181   2.389  1.6895 -1.9304 -0.4983
 9086SOL    HW228679   5.569   2.096   2.307  0.3535 -1.8043  0.8478
 9087SOL     OW28680   1.123   0.582   1.054  0.1132 -0.2656 -0.2952
 9087SOL    HW128681   1.154   0.602   1.142 -1.0988  2.5924 -0.4357
 9087SOL    HW228682   1.073   0.500   1.065 -0.3438  0.2313  1.7541
 9088SOL     OW28683   6.638   5.633   7.462 -0.5206 -0.1472  0.5745
 9088SOL    HW128684   6.565   5.662   7.517 -3.4681 -3.4733 -1.1302
 9088SOL    HW228685   6.665   5.549   7.500  0.1853 -0.5022 -0.6623
 9089SOL     OW28686   5.282   6.409   3.284  0.1254  0.2149 -0.0780
 9089SOL    HW128687   5.278   6.384   3.192  2.2737 -0.3250 -0.0645
 9089SOL    HW228688   5.350   6.477   3.287 -0.8898  1.2323  0.9258
 9090SOL     OW28689   6.598   3.053   3.851 -0.6415  0.4099  0.7324
 9090SOL    HW128690   6.675   3.001   3.874 -1.8264 -2.4375 -1.1117
 9090SOL    HW228691   6.569   3.090   3.934  1.9862  0.6322  1.6684
 9091SOL     OW28692   7.844   4.886   6.178  0.1253  0.3315  0.7924
 9091SOL    HW128693   7.912   4.843   6.127 -1.5447 -1.1121 -0.3727
 9091SOL    HW228694   7.825   4.966   6.130  0.4304  0.3119  0.6396
 9092SOL     OW28695   1.077   2.443   5.916 -0.1809 -0.0097 -0.6897
 9092SOL    HW128696   1.173   2.449   5.921 -0.2447  1.3664 -0.9290
 9092SOL    HW228697   1.046   2.507   5.980 -0.9514 -0.8166 -0.2390
 9093SOL     OW28698   3.688   3.327   2.953 -0.2318 -0.0796 -0.3234
 9093SOL    HW128699   3.727   3.284   2.877  0.6546 -0.5014  0.3671
 9093SOL    HW228700   3.739   3.408   2.963  1.6407 -1.3997  1.5736
 9094SOL     OW28701   5.270   1.371   4.536  0.6988 -0.1242  0.4388
 9094SOL    HW128702   5.365   1.378   4.544  0.7815  1.3116 -1.1030
 9094SOL    HW228703   5.256   1.310   4.463  0.4860  0.3882  0.0403
 9095SOL     OW28704   0.628   2.144   6.795  0.0785 -0.0454 -0.5619
 9095SOL    HW128705   0.602   2.230   6.828  1.7405  0.0974  0.4828
 9095SOL    HW228706   0.658   2.096   6.873  1.1544 -0.8258 -1.4164
 9096SOL     OW28707   7.493   5.488   4.540 -0.2020  0.0976  0.0884
 9096SOL    HW128708   7.568   5.544   4.559 -0.3683  0.7306 -1.0502
 9096SOL    HW228709   7.528   5.420   4.482 -0.5618  0.5724 -0.6946
 9097SOL     OW28710   1.805   8.054   4.432  0.9334  0.1412  0.3205
 9097SOL    HW128711   1.857   8.127   4.399 -1.0960  0.8246 -1.5881
 9097SOL    HW228712   1.716   8.089   4.440  0.0995 -1.8253  0.3268
 9098SOL     OW28713   0.633   6.418   1.978  0.2461 -0.1538  0.7615
 9098SOL    HW128714   0.647   6.360   1.904 -1.4829  0.8286 -0.3971
 9098SOL    HW228715   0.695   6.387   2.045 -0.0689 -2.8190 -0.0585
 9099SOL     OW28716   0.444   8.035   6.700 -1.0710 -0.1486 -0.2397
 9099SOL    HW128717   0.401   7.971   6.644 -2.6226  0.5945  0.0520
 9099SOL    HW228718   0.405   8.119   6.676  0.0174  0.5295  0.2494
 9100SOL     OW28719   6.679   8.029   1.991 -0.3097 -0.0971 -0.3567
 9100SOL    HW128720   6.607   8.034   1.927 -0.8132  0.9297  0.2735
 9100SOL    HW228721   6.726   7.949   1.967 -0.5911  0.1634 -1.9071
 9101SOL     OW28722   4.045   2.427   5.805 -0.0606  0.0844 -0.0926
 9101SOL    HW128723   4.038   2.471   5.889  0.1020 -0.2878  0.1189
 9101SOL    HW228724   3.979   2.469   5.750 -1.7678 -1.1776  0.8890
 9102SOL     OW28725   7.834   3.623   0.407 -0.2140  0.4397  0.0940
 9102SOL    HW128726   7.787   3.559   0.461  0.0127  1.5968  1.7247
 9102SOL    HW228727   7.882   3.569   0.343 -0.1090 -1.0234  1.3389
 9103SOL     OW28728   1.770   3.164   2.081  0.2006  0.2529 -0.5651
 9103SOL    HW128729   1.693   3.220   2.070  0.1015 -0.1180 -1.9999
 9103SOL    HW228730   1.844   3.222   2.066  0.2167  0.5582  0.5852
 9104SOL     OW28731   7.871   4.822   7.259 -0.5014  0.2627 -0.0760
 9104SOL    HW128732   7.825   4.771   7.192 -2.7509  0.4811  1.2265
 9104SOL    HW228733   7.861   4.770   7.339 -0.1874  1.3037  0.6547
 9105SOL     OW28734   5.653   0.052   4.602  0.2089  0.8719  0.1194
 9105SOL    HW128735   5.645   0.115   4.673  2.2289  1.5362 -0.1727
 9105SOL    HW228736   5.735   0.076   4.558  0.4146 -1.2144 -0.7405
 9106SOL     OW28737   3.180   1.312   5.976 -0.3931 -0.1188 -0.2621
 9106SOL    HW128738   3.182   1.351   6.064 -2.6431  1.9423 -0.9948
 9106SOL    HW228739   3.230   1.373   5.922  1.4313 -1.6528 -0.3998
 9107SOL     OW28740   5.398   4.695   6.083  0.4522 -0.4237 -0.2484
 9107SOL    HW128741   5.327   4.667   6.026  0.5119 -0.3753 -0.3463
 9107SOL    HW228742   5.450   4.755   6.030 -0.9490  1.7221  0.6208
 9108SOL     OW28743   1.704   5.781   5.149  0.3513  0.5377  0.1892
 9108SOL    HW128744   1.728   5.734   5.069  1.9956 -0.3247  1.1331
 9108SOL    HW228745   1.610   5.767   5.158  0.4246 -0.6899 -0.7396
 9109SOL     OW28746   2.001   6.827   6.037  0.0399  0.2563  0.2041
 9109SOL    HW128747   2.026   6.796   5.950  0.0516 -0.3212  0.4138
 9109SOL    HW228748   1.913   6.790   6.051 -0.2534  0.9145  0.1548
 9110SOL     OW28749   6.130   4.624   4.282  0.1756 -0.3563 -0.6785
 9110SOL    HW128750   6.115   4.531   4.300  1.0972 -0.5535 -0.8837
 9110SOL    HW228751   6.167   4.658   4.363 -1.0302  0.0630 -0.2762
 9111SOL     OW28752   7.304   2.784   1.648  0.1619 -0.5543  0.2474
 9111SOL    HW128753   7.275   2.803   1.737 -0.1623  0.6568 -0.0924
 9111SOL    HW228754   7.225   2.755   1.603  0.4261 -1.6624  0.4649
 9112SOL     OW28755   4.130   6.495   6.027 -0.2968  0.5116  0.0766
 9112SOL    HW128756   4.049   6.522   6.070 -0.2840 -0.4254  0.7270
 9112SOL    HW228757   4.107   6.414   5.981 -0.0196  0.8816 -0.7324
 9113SOL     OW28758   0.830   2.378   1.627 -0.8233 -0.1685  0.4760
 9113SOL    HW128759   0.748   2.417   1.598 -0.2524  0.4539 -0.3351
 9113SOL    HW228760   0.861   2.436   1.696 -0.4338  0.3313 -0.1033
 9114SOL     OW28761   7.479   0.996   2.232 -0.0410  0.5735  0.2998
 9114SOL    HW128762   7.535   0.953   2.168  0.5952  1.8581 -0.0243
 9114SOL    HW228763   7.428   0.924   2.271  0.5380 -0.3833 -0.6621
 9115SOL     OW28764   5.824   1.796   1.235 -0.5521  0.3021  0.3113
 9115SOL    HW128765   5.782   1.833   1.158 -1.2377 -0.2584  0.4125
 9115SOL    HW228766   5.780   1.713   1.250  0.8795 -0.5181  0.1661
 9116SOL     OW28767   4.160   2.853   5.946  0.8624  0.2577  0.3048
 9116SOL    HW128768   4.228   2.801   5.903  0.8123  0.7015 -0.3373
 9116SOL    HW228769   4.143   2.925   5.885  0.0558  0.3396  0.6110
 9117SOL     OW28770   1.207   7.728   4.627 -0.4480 -0.1453  0.1741
 9117SOL    HW128771   1.193   7.816   4.593 -1.6308  0.8585  2.9394
 9117SOL    HW228772   1.142   7.674   4.583 -0.4555  0.5870 -0.7426
 9118SOL     OW28773   2.295   5.931   1.057  0.2289 -0.4651 -1.1889
 9118SOL    HW128774   2.279   6.023   1.039  1.1543  0.8756  3.4806
 9118SOL    HW228775   2.389   5.919   1.041  0.9858  0.6323  1.8523
 9119SOL     OW28776   7.228   0.117   5.784 -0.5224  0.5572  0.1557
 9119SOL    HW128777   7.197   0.195   5.829  1.7551  2.0369 -0.6734
 9119SOL    HW228778   7.175   0.046   5.820 -2.0609  2.3298  1.5875
 9120SOL     OW28779   3.715   6.780   4.611  0.0652  0.1875  0.1056
 9120SOL    HW128780   3.678   6.729   4.539 -0.9525  1.3298 -0.2108
 9120SOL    HW228781   3.783   6.833   4.569  2.3628 -2.0617  0.7176
 9121SOL     OW28782   7.959   2.361   7.994 -0.1763  0.3854  0.0605
 9121SOL    HW128783   8.036   2.316   8.028  0.0980  0.0891 -0.9115
 9121SOL    HW228784   7.980   2.454   8.001  0.6060  0.2955 -0.9163
 9122SOL     OW28785   1.383   5.563   7.658 -0.2656  0.1311 -0.0560
 9122SOL    HW128786   1.322   5.637   7.659  0.1805  0.5132 -0.5475
 9122SOL    HW228787   1.469   5.604   7.668 -0.0327 -0.3437 -0.1209
 9123SOL     OW28788   7.315   7.444   2.845 -0.6527  0.4151  0.4752
 9123SOL    HW128789   7.244   7.424   2.906 -2.0656  0.0371 -1.2135
 9123SOL    HW228790   7.298   7.387   2.769  0.8995  1.0197 -0.3626
 9124SOL     OW28791   3.983   7.156   2.887 -0.4042  0.3717 -0.1786
 9124SOL    HW128792   3.928   7.158   2.965 -1.7183 -0.2621 -1.0741
 9124SOL    HW228793   3.926   7.126   2.817  0.8239  0.6607 -1.3489
 9125SOL     OW28794   1.906   2.088   3.054  0.3401  0.4536 -0.5637
 9125SOL    HW128795   1.893   2.148   3.127 -0.7624 -1.7263  1.1846
 9125SOL    HW228796   1.849   2.120   2.985 -3.1429 -0.4618  1.6159
 9126SOL     OW28797   2.645   5.582   0.521  0.9136  0.3400 -0.1529
 9126SOL    HW128798   2.601   5.505   0.486 -0.8864  1.4409 -0.4180
 9126SOL    HW228799   2.621   5.652   0.461  1.1901  1.4318  0.9789
 9127SOL     OW28800   2.731   4.755   0.252 -1.1041 -0.3149  0.4953
 9127SOL    HW128801   2.742   4.664   0.223 -1.8666 -1.3044  3.0097
 9127SOL    HW228802   2.772   4.758   0.338 -2.6517  1.2239  1.2514
 9128SOL     OW28803   1.595   5.051   3.979 -0.5464 -0.3962 -0.3705
 9128SOL    HW128804   1.651   5.044   4.056 -0.0476 -0.7520 -0.7621
 9128SOL    HW228805   1.624   5.132   3.936 -1.0286 -0.0374 -0.0259
 9129SOL     OW28806   5.742   7.699   4.307  0.2126  0.1836 -0.1883
 9129SOL    HW128807   5.756   7.705   4.401 -0.0232 -0.1333 -0.1324
 9129SOL    HW228808   5.826   7.727   4.269  1.1357 -1.8911  0.1477
 9130SOL     OW28809   3.530   6.940   0.080 -0.0208  0.1541 -0.5488
 9130SOL    HW128810   3.436   6.928   0.090 -0.0134  0.5762  0.1098
 9130SOL    HW228811   3.555   6.881   0.009 -0.2649 -2.2711  1.2661
 9131SOL     OW28812   3.732   6.157   7.523 -0.2803  0.2788 -0.3363
 9131SOL    HW128813   3.783   6.090   7.478 -1.5324  0.4310 -2.0696
 9131SOL    HW228814   3.716   6.120   7.610  0.1334 -1.0930 -0.8217
 9132SOL     OW28815   0.546   1.264   2.725 -0.0701  0.3201  0.1520
 9132SOL    HW128816   0.507   1.187   2.766  0.0282 -0.8997 -1.8668
 9132SOL    HW228817   0.472   1.311   2.687 -0.0851  0.9986  1.0042
 9133SOL     OW28818   3.606   2.962   3.885 -0.1339 -0.0808 -0.4122
 9133SOL    HW128819   3.606   2.976   3.980 -0.0726 -0.0798 -0.4125
 9133SOL    HW228820   3.610   3.050   3.848  0.3924 -0.0996 -0.4134
 9134SOL     OW28821   7.972   2.187   3.069 -0.1456  0.0316  0.0168
 9134SOL    HW128822   7.897   2.234   3.106  0.4884 -0.1787  1.6519
 9134SOL    HW228823   8.048   2.235   3.101  0.4614  0.9637 -2.5895
 9135SOL     OW28824   5.046   1.252   3.888  0.4374  0.2768  1.1956
 9135SOL    HW128825   4.964   1.206   3.875  0.3006  0.8440 -0.0442
 9135SOL    HW228826   5.033   1.303   3.968 -0.0235 -0.4549  1.5948
 9136SOL     OW28827   1.452   4.739   1.431  0.4041  0.1776 -0.3606
 9136SOL    HW128828   1.462   4.655   1.475 -0.6641  1.2651  2.1203
 9136SOL    HW228829   1.363   4.736   1.395  0.6200 -0.0110 -0.8849
 9137SOL     OW28830   5.391   5.160   4.877 -0.3442  0.1294  0.0539
 9137SOL    HW128831   5.403   5.100   4.950 -1.7856  0.6835  0.7906
 9137SOL    HW228832   5.328   5.225   4.909 -1.2860  0.1896 -1.7761
 9138SOL     OW28833   7.074   0.776   5.775 -0.2462  0.3670 -0.2203
 9138SOL    HW128834   7.137   0.724   5.725  0.7291 -0.1794  1.4970
 9138SOL    HW228835   7.025   0.711   5.826 -0.0204  1.0108  0.8376
 9139SOL     OW28836   5.069   3.804   5.314  0.1452 -0.6252 -0.1535
 9139SOL    HW128837   5.048   3.865   5.243  1.2524 -2.2296 -1.9715
 9139SOL    HW228838   4.988   3.755   5.328  0.0065 -0.5181 -0.5556
 9140SOL     OW28839   3.298   2.134   1.077  0.0858 -0.2329  0.4840
 9140SOL    HW128840   3.205   2.154   1.073  0.2417  0.7745  1.4390
 9140SOL    HW228841   3.331   2.152   0.989 -0.2674  1.2736  0.6394
 9141SOL     OW28842   6.658   6.537   7.745 -0.0933 -0.0011  0.7409
 9141SOL    HW128843   6.701   6.565   7.664  1.8118  1.4666  2.1693
 9141SOL    HW228844   6.577   6.495   7.715  1.0927 -0.5919 -1.9554
 9142SOL     OW28845   0.787   1.508   1.687 -0.2338 -0.3097  0.1499
 9142SOL    HW128846   0.746   1.572   1.745 -0.2627  1.3394 -1.5954
 9142SOL    HW228847   0.749   1.424   1.713 -3.5312  0.9237 -0.3241
 9143SOL     OW28848   1.955   7.091   0.760  0.3574  0.2982  0.1939
 9143SOL    HW128849   1.976   7.030   0.831 -1.5726 -1.6152 -0.7319
 9143SOL    HW228850   1.936   7.034   0.685 -3.1642  1.8328 -0.3045
 9144SOL     OW28851   6.711   6.399   6.323  0.2445  0.1645 -0.3637
 9144SOL    HW128852   6.637   6.443   6.365  1.2235  1.3279  0.1975
 9144SOL    HW228853   6.788   6.447   6.353  1.2224 -0.8687 -1.1260
 9145SOL     OW28854   2.988   4.958   4.741  0.2121 -0.4232 -0.5450
 9145SOL    HW128855   2.945   4.896   4.681 -0.5676 -1.3074  0.8632
 9145SOL    HW228856   3.080   4.931   4.741 -0.3147 -2.4737  0.9980
 9146SOL     OW28857   6.760   6.721   5.770  0.2919  0.0803 -0.7612
 9146SOL    HW128858   6.795   6.716   5.859 -0.6511 -0.2891 -0.4042
 9146SOL    HW228859   6.694   6.653   5.766  0.2829  0.1347 -1.7349
 9147SOL     OW28860   5.170   0.087   0.242 -0.1603  0.2927  0.2868
 9147SOL    HW128861   5.238   0.136   0.197  0.5771 -0.5908  0.4258
 9147SOL    HW228862   5.197   0.085   0.334 -0.5071  0.1631  0.3895
 9148SOL     OW28863   0.076   4.690   7.593  0.5696  0.2220  0.0292
 9148SOL    HW128864   0.170   4.702   7.578  0.2898  0.0837 -2.2152
 9148SOL    HW228865   0.042   4.779   7.608  0.7471  0.5637 -1.4533
 9149SOL     OW28866   5.687   6.768   6.381  0.0357  0.4175 -0.2897
 9149SOL    HW128867   5.625   6.759   6.309 -0.0702  0.2970 -0.1832
 9149SOL    HW228868   5.644   6.726   6.456 -0.1264  1.0957  0.0068
 9150SOL     OW28869   1.579   1.254   4.330  0.7353  0.0059 -0.3467
 9150SOL    HW128870   1.509   1.319   4.332  1.8199  1.4396 -3.0219
 9150SOL    HW228871   1.539   1.177   4.289  0.2002  0.0486  0.0857
 9151SOL     OW28872   4.025   5.434   8.009 -0.2694 -0.2995 -0.1458
 9151SOL    HW128873   4.037   5.405   8.100 -0.8830  0.9965  0.3883
 9151SOL    HW228874   4.086   5.381   7.958 -0.8332 -1.9628  0.8349
 9152SOL     OW28875   5.217   4.642   1.058  1.0056  0.4645 -0.0743
 9152SOL    HW128876   5.306   4.607   1.055  0.6277 -0.6472  0.8981
 9152SOL    HW228877   5.218   4.702   1.132  0.8777  0.2427  0.1078
 9153SOL     OW28878   2.307   7.213   1.281 -0.2764  0.4824  0.2587
 9153SOL    HW128879   2.285   7.186   1.191  1.2684  1.0705 -0.3265
 9153SOL    HW228880   2.284   7.305   1.285 -2.0427  0.0586  1.0856
 9154SOL     OW28881   2.789   2.660   5.003  0.2317 -0.9805  0.1242
 9154SOL    HW128882   2.830   2.681   4.919 -0.1125 -3.0240 -0.5990
 9154SOL    HW228883   2.783   2.744   5.048 -1.1431  0.4862 -2.5667
 9155SOL     OW28884   1.674   0.242   6.080 -0.0681 -0.0065  0.0637
 9155SOL    HW128885   1.667   0.278   5.992  1.1859 -1.0256 -0.4936
 9155SOL    HW228886   1.608   0.172   6.082 -0.2249  0.1382  0.0007
 9156SOL     OW28887   4.258   3.930   3.067  0.3711  0.5137  0.3875
 9156SOL    HW128888   4.220   3.971   3.145  1.0205  0.0277  0.9866
 9156SOL    HW228889   4.184   3.886   3.024  0.3621 -1.2983  2.0913
 9157SOL     OW28890   0.902   6.030   1.466 -0.5552  0.4669 -0.0634
 9157SOL    HW128891   0.872   6.063   1.551  0.0297 -1.0973  0.8040
 9157SOL    HW228892   0.948   5.948   1.487 -0.8783 -0.2575 -1.9436
 9158SOL     OW28893   0.618   1.104   5.181  0.0342  0.2323  0.1197
 9158SOL    HW128894   0.638   1.024   5.230  0.9983 -0.2060 -0.9241
 9158SOL    HW228895   0.686   1.166   5.208  0.0615  0.2620 -0.0137
 9159SOL     OW28896   2.933   6.418   5.507 -0.2092  0.2701 -0.2601
 9159SOL    HW128897   2.857   6.368   5.478 -0.1008  0.6319 -1.2041
 9159SOL    HW228898   2.897   6.497   5.547 -0.3317  0.5033 -0.8264
 9160SOL     OW28899   1.520   6.246   1.087  0.1977  0.0967 -0.1438
 9160SOL    HW128900   1.468   6.219   1.163 -1.8381  0.3158 -1.4121
 9160SOL    HW228901   1.525   6.169   1.032  0.5290  0.3221 -0.4351
 9161SOL     OW28902   8.055   7.031   3.655 -0.0600  0.2303 -1.0941
 9161SOL    HW128903   7.992   6.965   3.684  1.5230 -1.5053 -1.3751
 9161SOL    HW228904   8.007   7.083   3.590 -2.1712  1.1430  1.0530
 9162SOL     OW28905   7.852   5.130   6.057 -0.1183  0.3358  0.4111
 9162SOL    HW128906   7.882   5.203   6.002 -0.0936  0.6516  0.8362
 9162SOL    HW228907   7.789   5.170   6.117 -0.2170 -0.0228  0.5486
 9163SOL     OW28908   6.279   6.711   7.710 -0.3547  0.0127 -0.3933
 9163SOL    HW128909   6.213   6.744   7.771  0.8612  1.0565  0.4373
 9163SOL    HW228910   6.359   6.759   7.734  0.2958  0.0676 -2.4741
 9164SOL     OW28911   0.700   4.459   1.683  0.0502 -0.5117 -0.2689
 9164SOL    HW128912   0.735   4.533   1.733  1.4104 -0.7505 -0.8429
 9164SOL    HW228913   0.775   4.402   1.669 -0.1391 -0.2080 -3.0451
 9165SOL     OW28914   3.123   3.769   4.330 -0.6297  0.5885 -0.0376
 9165SOL    HW128915   3.067   3.826   4.277  0.0986  1.4478  0.0879
 9165SOL    HW228916   3.209   3.775   4.287 -0.2227  0.6645  0.7726
 9166SOL     OW28917   1.309   1.383   3.043  0.2697  0.6437 -0.3164
 9166SOL    HW128918   1.295   1.406   3.135 -0.5783 -0.5947 -0.1119
 9166SOL    HW228919   1.267   1.454   2.995  0.7597  1.3289  0.2415
 9167SOL     OW28920   5.019   7.247   3.956 -0.3261  0.3636  0.3466
 9167SOL    HW128921   5.058   7.318   3.904  0.3809 -0.0807  0.2515
 9167SOL    HW228922   5.085   7.178   3.954 -0.7877 -0.0972  0.8781
 9168SOL     OW28923   6.769   5.195   1.193 -0.0812 -0.2831 -1.2306
 9168SOL    HW128924   6.791   5.186   1.286  2.4736 -0.7128 -1.8056
 9168SOL    HW228925   6.717   5.117   1.174 -1.3091  0.1947 -0.0305
 9169SOL     OW28926   7.288   5.292   7.381 -0.3288 -0.8387 -0.1174
 9169SOL    HW128927   7.237   5.238   7.321  0.5003 -0.6886 -0.9933
 9169SOL    HW228928   7.378   5.284   7.349 -0.1128  0.6122  0.0587
 9170SOL     OW28929   4.066   1.970   2.519  0.1754  0.0744  0.0088
 9170SOL    HW128930   4.072   2.023   2.439  0.2969  0.7770  0.4670
 9170SOL    HW228931   4.153   1.931   2.529  0.3008  0.3594  0.0439
 9171SOL     OW28932   7.055   7.065   0.771  0.0596 -0.0792  0.0566
 9171SOL    HW128933   7.110   7.141   0.791 -1.6535  1.2790 -0.1885
 9171SOL    HW228934   7.082   7.040   0.683  0.2360  0.6304 -0.1036
 9172SOL     OW28935   4.024   2.553   6.527 -0.2189 -0.1474 -0.2225
 9172SOL    HW128936   4.110   2.537   6.487  0.5630  1.7274  0.5853
 9172SOL    HW228937   4.044   2.595   6.610 -1.9281  1.4527 -0.5587
 9173SOL     OW28938   8.030   4.561   6.086 -0.0156  0.2840  0.2300
 9173SOL    HW128939   8.071   4.576   6.171 -2.1907  1.5881  1.1721
 9173SOL    HW228940   8.060   4.475   6.059  1.5482  0.2655  1.8278
 9174SOL     OW28941   5.171   4.208   7.267  0.4720 -0.3506  0.4252
 9174SOL    HW128942   5.152   4.294   7.230  0.6003  0.0441  1.2447
 9174SOL    HW228943   5.265   4.208   7.281  0.6355 -1.0683 -0.6318
 9175SOL     OW28944   2.200   6.084   3.673  0.0900  0.0794  0.0338
 9175SOL    HW128945   2.121   6.058   3.720  0.5698  3.4363  3.1766
 9175SOL    HW228946   2.245   6.002   3.654 -1.6940 -1.7163  2.7813
 9176SOL     OW28947   3.088   5.446   0.781  0.1046 -0.0230  0.0636
 9176SOL    HW128948   3.084   5.482   0.692 -1.9755 -1.1983 -0.3932
 9176SOL    HW228949   3.129   5.360   0.771 -0.2798 -0.2256  0.2046
 9177SOL     OW28950   6.442   4.719   5.459 -0.2362  0.4963  0.2476
 9177SOL    HW128951   6.356   4.756   5.438 -1.1163 -0.9439  1.1210
 9177SOL    HW228952   6.444   4.636   5.411 -0.7888 -1.1233  2.8704
 9178SOL     OW28953   7.358   0.807   4.834  0.0448 -0.0177 -0.5749
 9178SOL    HW128954   7.313   0.891   4.822  1.1070  0.7360  0.4119
 9178SOL    HW228955   7.408   0.819   4.915  0.3391 -1.5580 -0.5077
 9179SOL     OW28956   1.944   4.284   1.742 -0.1373 -0.4250 -0.0695
 9179SOL    HW128957   1.990   4.233   1.808 -0.8772 -0.8056  0.1508
 9179SOL    HW228958   1.860   4.240   1.731 -1.0855  1.1411  0.6431
 9180SOL     OW28959   5.434   0.028   7.787  0.2464 -0.1203 -0.1072
 9180SOL    HW128960   5.387   0.064   7.862  1.7797  1.1621  0.2908
 9180SOL    HW228961   5.522   0.009   7.820  0.9271  0.3738 -1.5344
 9181SOL     OW28962   4.252   1.220   5.209 -0.2946  0.5067  0.6983
 9181SOL    HW128963   4.173   1.268   5.233  0.7133  1.2174  2.7985
 9181SOL    HW228964   4.320   1.253   5.268  1.6378  0.0290 -1.1371
 9182SOL     OW28965   1.802   4.410   1.300 -0.1888  0.5056 -0.2673
 9182SOL    HW128966   1.869   4.471   1.328  0.9080 -0.6215 -0.3360
 9182SOL    HW228967   1.830   4.325   1.335 -0.9306 -0.2063 -1.3160
 9183SOL     OW28968   5.819   7.795   3.938 -0.6145 -0.0964  0.2178
 9183SOL    HW128969   5.898   7.751   3.970 -1.2616 -2.1879 -0.8903
 9183SOL    HW228970   5.846   7.886   3.924  1.5070 -0.6935  0.1560
 9184SOL     OW28971   0.870   7.974   0.102  0.1649 -0.0707  0.2026
 9184SOL    HW128972   0.829   7.915   0.039 -1.9077  0.9671  0.5137
 9184SOL    HW228973   0.828   8.058   0.088 -0.1953  0.2661  2.7957
 9185SOL     OW28974   7.370   2.399   6.973  0.2896 -0.1775  0.2958
 9185SOL    HW128975   7.315   2.326   6.999 -0.4894  0.7538  1.3741
 9185SOL    HW228976   7.308   2.467   6.946  1.0096 -0.3810 -2.1913
 9186SOL     OW28977   1.481   5.688   5.423 -0.3517 -0.1411  0.1549
 9186SOL    HW128978   1.412   5.754   5.425 -0.8022 -0.6083  2.5554
 9186SOL    HW228979   1.557   5.732   5.461  0.3916  0.0169 -1.4355
 9187SOL     OW28980   0.207   7.068   3.108  0.5437 -0.4519  0.1390
 9187SOL    HW128981   0.126   7.024   3.083  2.2839 -3.5403 -0.5901
 9187SOL    HW228982   0.227   7.033   3.195  2.4053 -1.9848 -0.8089
 9188SOL     OW28983   2.938   6.093   4.243 -0.4055 -0.0113 -0.0154
 9188SOL    HW128984   3.005   6.075   4.177  0.0836  2.1632 -0.1627
 9188SOL    HW228985   2.859   6.111   4.192 -0.4951 -0.1289  0.0797
 9189SOL     OW28986   5.859   1.916   2.742  0.4067  0.6583  0.2998
 9189SOL    HW128987   5.838   1.888   2.653  1.9793  0.2533  0.0247
 9189SOL    HW228988   5.814   2.000   2.752  0.6680  0.9926 -1.0937
 9190SOL     OW28989   1.417   1.426   0.086  0.4186 -0.3465 -0.2991
 9190SOL    HW128990   1.359   1.483   0.036 -0.0598 -0.2495  0.3370
 9190SOL    HW228991   1.360   1.353   0.114  0.6043 -0.2763  0.2899
 9191SOL     OW28992   4.088   1.762   3.407 -0.1019  0.1727  0.3169
 9191SOL    HW128993   4.056   1.673   3.421 -0.9276  0.5639  1.0827
 9191SOL    HW228994   4.132   1.785   3.489 -2.8779  1.6454  1.5446
 9192SOL     OW28995   6.150   4.590   2.993  0.0337 -0.1888 -0.0708
 9192SOL    HW128996   6.222   4.551   2.944  0.6195  1.2799 -0.4080
 9192SOL    HW228997   6.135   4.529   3.066  0.2121 -1.5705 -1.1401
 9193SOL     OW28998   1.499   5.212   1.724  0.4014  0.0452 -0.0232
 9193SOL    HW128999   1.575   5.232   1.778  1.1500  1.4670 -1.5118
 9193SOL    HW229000   1.529   5.144   1.664  0.7879  1.1063 -1.0887
 9194SOL     OW29001   1.879   6.313   0.162 -0.4235  0.0813  0.2040
 9194SOL    HW129002   1.959   6.263   0.177 -0.8642 -0.2364  1.6529
 9194SOL    HW229003   1.816   6.276   0.222 -1.5909  0.5379 -0.7002
 9195SOL     OW29004   3.462   4.459   1.348  0.4155 -0.1384  0.0438
 9195SOL    HW129005   3.470   4.377   1.396 -1.5257 -1.5907 -1.9176
 9195SOL    HW229006   3.531   4.456   1.283  2.1638  1.1937  1.7265
 9196SOL     OW29007   7.468   1.082   4.817  0.0743 -0.1597  0.6269
 9196SOL    HW129008   7.544   1.024   4.811 -0.0993 -0.5619  2.0589
 9196SOL    HW229009   7.429   1.079   4.730  2.5921  1.3414 -0.6750
 9197SOL     OW29010   1.839   5.113   7.648  0.0452  0.1066 -0.1015
 9197SOL    HW129011   1.757   5.074   7.678 -0.7811  1.0077 -1.0952
 9197SOL    HW229012   1.858   5.069   7.565 -2.1051  3.1666 -2.4279
 9198SOL     OW29013   0.132   7.403   4.037 -0.5998 -0.5136 -0.6063
 9198SOL    HW129014   0.154   7.310   4.032  0.1933 -0.3003 -1.1861
 9198SOL    HW229015   0.163   7.430   4.123 -0.1284 -0.6119 -0.7426
 9199SOL     OW29016   6.956   5.455   1.186  0.1416 -0.3447  0.1026
 9199SOL    HW129017   6.979   5.371   1.225 -1.4478 -0.7164  0.3061
 9199SOL    HW229018   6.998   5.521   1.242  2.1098 -0.9631 -0.5290
 9200SOL     OW29019   2.907   0.415   1.798 -0.2700 -0.0701  0.3408
 9200SOL    HW129020   2.924   0.321   1.805  0.6699  0.0495 -0.1059
 9200SOL    HW229021   2.817   0.426   1.829 -0.7585 -1.2508 -0.5850
 9201SOL     OW29022   2.526   6.657   4.821  0.0168  0.0524  0.0783
 9201SOL    HW129023   2.612   6.616   4.833  0.1773  0.6100  0.9505
 9201SOL    HW229024   2.487   6.610   4.747  0.7856 -0.6759  0.1157
 9202SOL     OW29025   7.654   1.694   4.810  0.2539 -0.0240  0.1895
 9202SOL    HW129026   7.652   1.751   4.887  2.6633 -0.4937  0.6856
 9202SOL    HW229027   7.590   1.626   4.830  0.0938  0.4260  1.3305
 9203SOL     OW29028   2.868   3.191   4.438 -0.0711  0.1161 -0.0222
 9203SOL    HW129029   2.806   3.251   4.395  0.1954 -0.1148 -0.7368
 9203SOL    HW229030   2.812   3.125   4.479 -0.3058  0.0337 -0.4742
 9204SOL     OW29031   3.418   2.785   3.043 -0.4677 -0.3966  0.4409
 9204SOL    HW129032   3.417   2.829   2.958 -0.0681  0.4261  0.8430
 9204SOL    HW229033   3.363   2.708   3.031 -2.1143  0.7714  0.0015
 9205SOL     OW29034   6.431   4.563   4.693  0.2548  0.2655  0.1766
 9205SOL    HW129035   6.415   4.521   4.609 -2.9113  0.5866  0.5146
 9205SOL    HW229036   6.403   4.498   4.758  1.0095  0.6681  0.9297
 9206SOL     OW29037   1.767   0.892   1.154 -0.4547 -0.3334  0.0129
 9206SOL    HW129038   1.757   0.851   1.068  1.8522 -1.2567  0.1196
 9206SOL    HW229039   1.861   0.886   1.173 -0.5824  1.7075  1.7021
 9207SOL     OW29040   6.782   4.395   1.289  0.3012 -0.2348  0.3589
 9207SOL    HW129041   6.833   4.468   1.254 -1.1191  0.9625  0.6580
 9207SOL    HW229042   6.802   4.395   1.383  1.9682 -1.6688  0.0559
 9208SOL     OW29043   6.879   3.966   2.306  0.0718 -0.3673 -0.5774
 9208SOL    HW129044   6.832   3.884   2.316 -0.2528  0.0320  1.7733
 9208SOL    HW229045   6.952   3.960   2.368  2.2433 -0.3105 -2.9724
 9209SOL     OW29046   3.482   0.642   0.848 -0.5911  0.2949  0.0274
 9209SOL    HW129047   3.530   0.661   0.928  0.1773 -1.0879 -0.0735
 9209SOL    HW229048   3.390   0.661   0.870 -0.3293  0.4059  1.0752
 9210SOL     OW29049   3.414   2.042   2.273  0.3266 -0.1613 -0.0162
 9210SOL    HW129050   3.408   1.951   2.302  0.4923  0.2102  1.2409
 9210SOL    HW229051   3.497   2.073   2.309 -0.6273  1.0474  1.2432
 9211SOL     OW29052   3.083   2.141   6.253  0.4220 -0.5129  0.2947
 9211SOL    HW129053   3.042   2.094   6.180  0.9038 -1.7775  0.8240
 9211SOL    HW229054   3.038   2.226   6.254 -1.8756 -1.6487  0.5545
 9212SOL     OW29055   3.482   2.714   0.452  0.5306 -0.4892 -0.1978
 9212SOL    HW129056   3.536   2.664   0.514 -0.7995 -2.6280 -0.6562
 9212SOL    HW229057   3.408   2.744   0.505  0.5178 -0.4118 -0.2610
 9213SOL     OW29058   4.320   5.634   2.095  0.6253 -0.3028  0.3854
 9213SOL    HW129059   4.407   5.672   2.107  0.4983 -0.0949  0.6643
 9213SOL    HW229060   4.283   5.681   2.021  1.0340 -0.9026 -0.2041
 9214SOL     OW29061   5.744   7.629   1.151 -0.0351 -0.0900 -0.0391
 9214SOL    HW129062   5.779   7.645   1.063  2.8036  0.3044  1.0585
 9214SOL    HW229063   5.655   7.662   1.147  0.7907  2.2693 -2.1204
 9215SOL     OW29064   7.528   6.902   3.259  0.4282 -0.2193  0.6581
 9215SOL    HW129065   7.458   6.839   3.274  1.7943 -1.4663  2.2799
 9215SOL    HW229066   7.557   6.927   3.347  1.6703  0.6438  0.0404
 9216SOL     OW29067   0.733   7.512   6.935  0.1856  0.0148 -0.7851
 9216SOL    HW129068   0.776   7.445   6.987  2.3993  2.2261  0.4599
 9216SOL    HW229069   0.653   7.533   6.984 -0.0215 -0.9702 -0.6778
 9217SOL     OW29070   8.022   7.793   7.835  0.1816 -0.3997 -0.1574
 9217SOL    HW129071   8.008   7.868   7.777  1.5239 -0.3935 -0.5072
 9217SOL    HW229072   7.971   7.722   7.796  0.3984 -0.1669 -0.8703
 9218SOL     OW29073   6.643   2.121   3.094  0.2012 -0.1245 -0.4535
 9218SOL    HW129074   6.680   2.063   3.027 -0.5699  0.1917 -1.1742
 9218SOL    HW229075   6.590   2.063   3.148  1.0655 -0.4343  0.0750
 9219SOL     OW29076   2.934   5.360   7.893  0.2362 -0.0536  0.3360
 9219SOL    HW129077   2.989   5.361   7.971  0.5121 -2.1643  0.2286
 9219SOL    HW229078   2.845   5.374   7.925  0.5688  1.2842  0.7413
 9220SOL     OW29079   7.798   0.106   7.291 -0.0782  0.1377 -0.0874
 9220SOL    HW129080   7.892   0.122   7.290 -0.1217  0.8443  2.1291
 9220SOL    HW229081   7.787   0.021   7.249  1.5639 -0.0586 -0.1809
 9221SOL     OW29082   4.358   1.885   2.492  0.4886 -0.3919 -0.3451
 9221SOL    HW129083   4.441   1.879   2.444  1.9203 -1.6269  2.1146
 9221SOL    HW229084   4.344   1.797   2.526 -0.9912  0.2054  0.6753
 9222SOL     OW29085   7.359   2.098   7.735  0.6611  0.4257 -0.4144
 9222SOL    HW129086   7.315   2.129   7.655  0.4736  1.9363  0.2470
 9222SOL    HW229087   7.447   2.075   7.706 -0.3309 -2.1978 -1.6676
 9223SOL     OW29088   6.537   1.637   7.770 -0.2730  0.2362  0.2600
 9223SOL    HW129089   6.505   1.583   7.843 -1.3391 -1.4608 -1.3679
 9223SOL    HW229090   6.632   1.635   7.778 -0.3628 -0.0619  1.4923
 9224SOL     OW29091   3.295   6.735   5.923  0.1672  0.2861 -0.6015
 9224SOL    HW129092   3.307   6.785   5.842 -0.2177 -0.1896 -0.9562
 9224SOL    HW229093   3.376   6.686   5.933  0.0661  0.0585 -0.8991
 9225SOL     OW29094   1.248   4.951   7.892 -0.5332 -0.4320 -0.1900
 9225SOL    HW129095   1.222   5.040   7.868 -0.7148  0.1358  1.9032
 9225SOL    HW229096   1.340   4.960   7.918 -0.1444 -1.1438 -1.2718
 9226SOL     OW29097   2.388   2.694   0.332 -0.2008 -0.1986 -0.2051
 9226SOL    HW129098   2.439   2.770   0.359  0.3640 -0.0555 -1.6384
 9226SOL    HW229099   2.454   2.627   0.310 -0.6794 -1.2591  1.3539
 9227SOL     OW29100   4.840   4.044   1.053  0.8101  0.0869  0.9171
 9227SOL    HW129101   4.879   3.957   1.047  0.6084  0.0528 -0.1211
 9227SOL    HW229102   4.914   4.104   1.052  0.9173 -0.0447  0.8899
 9228SOL     OW29103   7.690   5.902   0.187  0.4835 -0.3120  0.6818
 9228SOL    HW129104   7.597   5.908   0.163  0.9554  0.2830 -1.1845
 9228SOL    HW229105   7.728   5.843   0.121  1.6142  0.2770  0.7841
 9229SOL     OW29106   4.934   4.118   7.889 -0.7256 -0.4382 -0.0129
 9229SOL    HW129107   4.872   4.050   7.916 -0.0747 -1.0439 -0.0058
 9229SOL    HW229108   5.011   4.069   7.858  0.0535  0.3043  0.6967
 9230SOL     OW29109   2.365   7.613   7.926 -0.3610  0.1103 -0.7399
 9230SOL    HW129110   2.317   7.593   8.006 -0.1518  0.0192 -0.6377
 9230SOL    HW229111   2.456   7.617   7.952 -0.3771  1.0715 -0.7911
 9231SOL     OW29112   0.782   5.932   7.924  0.9578  0.1934 -0.1269
 9231SOL    HW129113   0.764   5.883   8.005  0.9594 -2.2120 -1.5163
 9231SOL    HW229114   0.696   5.965   7.898  0.3032 -1.9599 -0.9100
 9232SOL     OW29115   7.020   0.656   1.651 -0.6485  0.2551  0.5663
 9232SOL    HW129116   7.010   0.565   1.680  1.7751 -0.0345  0.7173
 9232SOL    HW229117   7.023   0.706   1.733  0.3704  0.1575  0.5989
 9233SOL     OW29118   5.048   7.024   7.606 -0.3918 -0.0081 -0.2849
 9233SOL    HW129119   5.089   7.060   7.684  0.0950 -0.1333 -0.4834
 9233SOL    HW229120   4.958   7.005   7.633 -0.6053  1.1346 -0.1047
 9234SOL     OW29121   1.143   0.478   5.796 -0.3148  0.3671 -0.2007
 9234SOL    HW129122   1.191   0.560   5.808 -0.1834  0.2474  0.1096
 9234SOL    HW229123   1.085   0.473   5.872 -1.4227  0.9146 -0.9727
 9235SOL     OW29124   5.761   5.364   1.941  0.4287  0.8192  0.0655
 9235SOL    HW129125   5.826   5.294   1.952 -1.6132 -1.2036  0.1951
 9235SOL    HW229126   5.804   5.443   1.973  2.3741 -0.6561  1.2988
 9236SOL     OW29127   4.094   5.053   5.910 -0.4531  0.0218  0.3663
 9236SOL    HW129128   4.140   5.015   5.985 -0.5590 -0.0499  0.3940
 9236SOL    HW229129   4.164   5.076   5.849 -0.4999 -3.2823 -1.1571
 9237SOL     OW29130   5.196   1.853   6.580 -0.3717  0.4339  0.0776
 9237SOL    HW129131   5.110   1.867   6.618 -0.4497  1.6540 -0.5164
 9237SOL    HW229132   5.181   1.854   6.485  0.1871 -0.0915 -0.0237
 9238SOL     OW29133   0.208   6.604   3.035 -0.5008  0.1706  0.1036
 9238SOL    HW129134   0.198   6.661   3.111  1.2548 -0.3143  0.7514
 9238SOL    HW229135   0.200   6.662   2.959 -0.7474  0.9260  0.7024
 9239SOL     OW29136   7.729   5.790   2.098 -0.6051 -0.6807 -0.2096
 9239SOL    HW129137   7.649   5.805   2.148 -1.3679 -1.1106 -1.2620
 9239SOL    HW229138   7.795   5.767   2.163 -1.0673  0.7025  0.7710
 9240SOL     OW29139   7.854   1.575   4.172 -0.1169  0.2579  0.9477
 9240SOL    HW129140   7.801   1.534   4.241  0.5412  0.3076  1.4953
 9240SOL    HW229141   7.925   1.619   4.219 -2.3602  4.6224  0.7071
 9241SOL     OW29142   3.310   5.392   4.685 -0.0368  0.5844  0.2109
 9241SOL    HW129143   3.283   5.452   4.615 -0.2889 -0.0754 -0.2626
 9241SOL    HW229144   3.365   5.446   4.742  0.8113  0.9394 -0.9044
 9242SOL     OW29145   7.770   7.214   1.182  0.4304 -0.2820  0.0731
 9242SOL    HW129146   7.844   7.193   1.239  0.0637  0.2856  0.7784
 9242SOL    HW229147   7.704   7.250   1.241 -0.8297 -1.7550 -0.3933
 9243SOL     OW29148   2.233   4.546   1.116 -0.1693  0.0188  0.4730
 9243SOL    HW129149   2.239   4.636   1.148 -0.1121  0.5595 -0.9762
 9243SOL    HW229150   2.299   4.498   1.167  2.2783  1.5422 -1.0114
 9244SOL     OW29151   3.340   3.568   8.033 -0.0765 -0.2708 -0.2337
 9244SOL    HW129152   3.356   3.632   7.964 -0.9541  0.2308  0.0154
 9244SOL    HW229153   3.376   3.486   7.998  0.2230  0.1505 -0.9386
 9245SOL     OW29154   1.641   1.307   4.617  0.5403 -0.4567  0.1971
 9245SOL    HW129155   1.576   1.336   4.553 -0.5392  0.6664  1.7347
 9245SOL    HW229156   1.724   1.340   4.584  0.0528 -0.1407 -0.7524
 9246SOL     OW29157   7.173   7.699   0.470 -0.2328  0.1455 -0.3707
 9246SOL    HW129158   7.187   7.627   0.532  0.8771 -1.1295 -2.0326
 9246SOL    HW229159   7.220   7.673   0.391 -0.4348  2.3718 -1.2982
 9247SOL     OW29160   5.012   7.891   6.417  0.5851  0.0243  0.5861
 9247SOL    HW129161   5.061   7.837   6.355 -0.1755  0.7951 -0.7416
 9247SOL    HW229162   5.040   7.981   6.398  0.2312  0.2848  1.2655
 9248SOL     OW29163   0.949   4.099   6.947 -0.3020  0.2139 -0.6112
 9248SOL    HW129164   0.980   4.075   6.860 -0.3419  1.7051 -1.0753
 9248SOL    HW229165   0.890   4.028   6.972  0.5444 -0.7701 -1.3300
 9249SOL     OW29166   2.397   3.869   3.969  0.3710 -0.3923 -0.2777
 9249SOL    HW129167   2.455   3.806   3.927  0.5137 -0.6789  0.3340
 9249SOL    HW229168   2.312   3.856   3.927 -0.0044 -2.1009  0.8975
 9250SOL     OW29169   7.061   5.390   6.167 -0.0413 -0.6284 -0.0646
 9250SOL    HW129170   7.088   5.476   6.134 -2.8380 -0.2304 -1.6013
 9250SOL    HW229171   7.054   5.336   6.089 -0.2569 -1.6786  0.6677
 9251SOL     OW29172   0.759   2.686   1.335 -0.3147  0.3482 -0.0556
 9251SOL    HW129173   0.682   2.725   1.292  1.0432  0.9337 -2.0910
 9251SOL    HW229174   0.735   2.594   1.347 -1.5683  0.6550 -0.0526
 9252SOL     OW29175   1.926   7.260   6.537 -0.1797  0.2209 -0.2483
 9252SOL    HW129176   1.947   7.352   6.552  0.3597  0.2632 -1.1809
 9252SOL    HW229177   1.985   7.212   6.596  1.0685  0.4187 -1.2887
 9253SOL     OW29178   6.278   3.369   3.111  0.1056  0.3432  0.0322
 9253SOL    HW129179   6.332   3.328   3.179  0.1414 -1.0360 -0.7847
 9253SOL    HW229180   6.210   3.304   3.093 -0.2772  0.9609 -0.8051
 9254SOL     OW29181   5.058   4.792   0.335 -0.7188  0.6796 -0.0245
 9254SOL    HW129182   5.043   4.714   0.281  1.1101  0.5187 -0.3405
 9254SOL    HW229183   5.116   4.762   0.405  0.4866  1.8610 -0.4783
 9255SOL     OW29184   3.916   7.744   3.328 -0.2153 -0.0041 -0.2897
 9255SOL    HW129185   3.981   7.679   3.300 -1.2234 -1.2775  0.1848
 9255SOL    HW229186   3.881   7.709   3.410 -3.7617 -1.1260 -2.0624
 9256SOL     OW29187   3.130   7.424   5.805 -0.3229 -0.4966  0.0265
 9256SOL    HW129188   3.074   7.416   5.728 -0.9901 -0.6678  0.5200
 9256SOL    HW229189   3.213   7.455   5.771 -1.1063  1.0565 -0.5922
 9257SOL     OW29190   2.719   4.959   4.317  0.0269  0.0466  0.1650
 9257SOL    HW129191   2.812   4.934   4.314  0.2523  0.8575 -2.3158
 9257SOL    HW229192   2.685   4.935   4.231 -2.2041 -0.5556  1.1468
 9258SOL     OW29193   3.522   4.585   3.204 -0.7896  0.1490  0.1501
 9258SOL    HW129194   3.495   4.578   3.296 -1.0570 -1.1235 -0.0069
 9258SOL    HW229195   3.607   4.629   3.208 -1.3298  1.1812  0.9056
 9259SOL     OW29196   2.740   5.849   3.611  0.4213 -0.4841 -0.7531
 9259SOL    HW129197   2.750   5.797   3.691 -0.3816  0.2739 -0.1422
 9259SOL    HW229198   2.809   5.916   3.617  0.5095 -0.5676 -0.8194
 9260SOL     OW29199   6.890   4.869   3.601 -0.3784  0.3477  0.0695
 9260SOL    HW129200   6.932   4.790   3.636  0.3020 -0.2005 -1.8891
 9260SOL    HW229201   6.943   4.941   3.635  0.9301 -0.2305 -0.6837
 9261SOL     OW29202   1.889   3.589   7.126 -0.1177  0.1937 -0.5127
 9261SOL    HW129203   1.810   3.550   7.162 -0.0636 -1.0308 -1.6252
 9261SOL    HW229204   1.858   3.655   7.064 -0.2847 -0.4010 -1.0719
 9262SOL     OW29205   5.684   5.506   4.491  0.4302  0.1296 -0.4493
 9262SOL    HW129206   5.745   5.432   4.497  0.0091 -0.1242  2.6127
 9262SOL    HW229207   5.605   5.475   4.536  0.8856  2.8998  2.6925
 9263SOL     OW29208   3.268   3.018   4.014 -0.2943  0.0999  0.3055
 9263SOL    HW129209   3.354   2.994   4.049 -0.8451 -0.0048  1.6218
 9263SOL    HW229210   3.277   3.004   3.920  1.4677  1.1247  0.2670
 9264SOL     OW29211   3.531   6.270   3.092 -0.0665  0.2159  0.1895
 9264SOL    HW129212   3.570   6.352   3.061  0.0033 -0.2658 -1.0666
 9264SOL    HW229213   3.457   6.297   3.146 -0.5076  1.1120 -0.8347
 9265SOL     OW29214   6.760   7.575   1.867  0.1125  0.5989 -0.1631
 9265SOL    HW129215   6.725   7.579   1.778 -0.8387 -2.1370 -0.0106
 9265SOL    HW229216   6.688   7.606   1.922 -1.0373 -1.9670 -0.0920
 9266SOL     OW29217   2.842   2.200   3.915 -0.3878  0.2826 -0.2049
 9266SOL    HW129218   2.896   2.133   3.873 -0.0202 -0.7167  1.7415
 9266SOL    HW229219   2.752   2.168   3.904 -0.2618 -0.2137  0.1630
 9267SOL     OW29220   3.185   7.631   4.396 -0.1575 -0.1069  0.3661
 9267SOL    HW129221   3.146   7.713   4.427  1.9843  1.1070  0.0607
 9267SOL    HW229222   3.174   7.570   4.469 -1.9119  0.3716  0.5531
 9268SOL     OW29223   4.233   6.441   1.290  0.0366 -0.1069  0.0670
 9268SOL    HW129224   4.209   6.408   1.203 -1.8935  0.5311  0.2964
 9268SOL    HW229225   4.163   6.408   1.347  0.2669  1.0084  1.0315
 9269SOL     OW29226   5.551   0.073   6.379 -0.2365  0.0265  0.2995
 9269SOL    HW129227   5.483   0.124   6.424 -0.0334 -0.4740  1.2135
 9269SOL    HW229228   5.607   0.042   6.450  0.9144  0.3686 -0.4327
 9270SOL     OW29229   5.346   6.480   3.616 -0.4943 -0.7130  0.2315
 9270SOL    HW129230   5.429   6.523   3.638 -0.8350  0.4898 -0.7783
 9270SOL    HW229231   5.369   6.387   3.611  0.5513 -0.5275  1.0682
 9271SOL     OW29232   4.167   3.619   0.502  0.2885 -0.1796  0.4958
 9271SOL    HW129233   4.215   3.695   0.537  1.2189  0.0414 -1.1389
 9271SOL    HW229234   4.130   3.650   0.420 -1.4294 -0.8156  0.9849
 9272SOL     OW29235   3.762   4.038   3.211 -0.4252  0.2037  0.4060
 9272SOL    HW129236   3.759   4.133   3.218 -0.3837  0.4559 -2.0804
 9272SOL    HW229237   3.844   4.019   3.166 -0.2101 -1.0640  1.2645
 9273SOL     OW29238   2.507   4.385   2.263  0.4247 -0.2385 -0.4760
 9273SOL    HW129239   2.566   4.459   2.250  1.1501 -1.0035 -1.7959
 9273SOL    HW229240   2.551   4.331   2.329  0.2377  0.1702 -0.0198
 9274SOL     OW29241   4.762   6.589   7.085 -0.1974  0.0149 -0.0417
 9274SOL    HW129242   4.696   6.521   7.071 -0.9362  0.5769  0.5534
 9274SOL    HW229243   4.837   6.562   7.033 -1.2505 -0.1476 -1.5364
 9275SOL     OW29244   3.703   2.714   1.923  0.1341 -0.1905 -0.0780
 9275SOL    HW129245   3.763   2.755   1.986 -0.9067  1.6455 -0.2232
 9275SOL    HW229246   3.617   2.724   1.963 -0.5054  0.6705 -1.6180
 9276SOL     OW29247   5.813   3.084   4.668 -0.2227 -0.2810 -0.7220
 9276SOL    HW129248   5.739   3.023   4.675  0.5138 -1.1363 -0.0994
 9276SOL    HW229249   5.872   3.057   4.738  0.3685  0.8301 -0.7795
 9277SOL     OW29250   7.084   5.073   2.641 -0.0462  0.0328  0.1846
 9277SOL    HW129251   7.175   5.079   2.669 -0.1220  1.1556  0.2020
 9277SOL    HW229252   7.055   4.988   2.675  0.0522  1.0239  3.0025
 9278SOL     OW29253   0.626   5.851   6.387 -0.0631 -0.1040  0.4165
 9278SOL    HW129254   0.684   5.780   6.416  1.4436  1.3176  1.0360
 9278SOL    HW229255   0.679   5.930   6.394 -2.2405  1.3593  1.4032
 9279SOL     OW29256   6.886   2.058   6.734 -0.4426 -1.0416 -0.1426
 9279SOL    HW129257   6.873   2.103   6.817 -0.7557 -0.2973 -0.5798
 9279SOL    HW229258   6.980   2.039   6.730 -0.5158 -1.5911  0.6240
 9280SOL     OW29259   3.467   6.485   2.563  0.4037 -0.8026  0.0015
 9280SOL    HW129260   3.379   6.520   2.547  1.0631  1.2498  0.5334
 9280SOL    HW229261   3.523   6.534   2.502  1.0603 -3.0526 -1.3409
 9281SOL     OW29262   1.431   3.728   2.577  0.0287 -0.2430  0.2507
 9281SOL    HW129263   1.365   3.797   2.569  1.1615  0.6612 -2.8164
 9281SOL    HW229264   1.486   3.756   2.649 -0.5644  1.1738  0.1898
 9282SOL     OW29265   1.243   5.908   4.742  0.4297 -0.2988 -0.6905
 9282SOL    HW129266   1.324   5.959   4.745  0.5362 -0.4207 -1.3541
 9282SOL    HW229267   1.249   5.848   4.816  0.4465  0.4297 -0.0872
 9283SOL     OW29268   7.886   1.842   7.317  0.0327  0.2845 -0.5727
 9283SOL    HW129269   7.831   1.775   7.278  0.7391  0.4284 -1.8890
 9283SOL    HW229270   7.965   1.795   7.345 -0.8805  0.0121  1.6562
 9284SOL     OW29271   5.834   5.788   0.171 -0.8271 -1.1661  0.6496
 9284SOL    HW129272   5.808   5.717   0.230 -0.3972 -0.2218  2.0252
 9284SOL    HW229273   5.764   5.852   0.179 -0.9614 -1.1906 -0.1990
 9285SOL     OW29274   0.110   5.569   0.995 -0.5986  0.1620  0.6561
 9285SOL    HW129275   0.155   5.619   0.927  0.1734 -1.6512 -0.2380
 9285SOL    HW229276   0.166   5.577   1.073  0.6290 -0.9757 -0.0715
 9286SOL     OW29277   3.230   6.941   2.484 -0.2821 -0.2407 -0.3788
 9286SOL    HW129278   3.135   6.928   2.482 -0.1887 -1.0315 -0.2445
 9286SOL    HW229279   3.242   7.021   2.534 -0.9363  0.6088 -1.5377
 9287SOL     OW29280   4.216   1.247   4.945  0.0533 -0.1939  0.3620
 9287SOL    HW129281   4.126   1.216   4.951 -0.3040  0.6846 -0.3162
 9287SOL    HW229282   4.250   1.238   5.034 -0.5580 -0.9300  0.5337
 9288SOL     OW29283   4.704   2.809   3.617 -0.8168  0.2645  0.6647
 9288SOL    HW129284   4.769   2.810   3.547  0.1524 -1.0175  1.5027
 9288SOL    HW229285   4.622   2.833   3.574  0.0826  1.3621 -0.5307
 9289SOL     OW29286   0.544   7.976   7.829 -0.5766 -0.3209 -0.1832
 9289SOL    HW129287   0.607   7.927   7.881 -0.0255  0.3426 -0.2186
 9289SOL    HW229288   0.465   7.921   7.829  0.5787 -2.0895 -1.7533
 9290SOL     OW29289   4.636   1.510   2.723 -0.4436 -0.1187 -0.2839
 9290SOL    HW129290   4.691   1.582   2.753 -1.2803  0.4078 -0.0053
 9290SOL    HW229291   4.668   1.434   2.771 -1.2547  0.5609  1.3885
 9291SOL     OW29292   6.321   5.297   3.070 -0.4272  0.5497  0.5109
 9291SOL    HW129293   6.302   5.367   3.132 -3.0201  0.1706  0.2785
 9291SOL    HW229294   6.366   5.340   2.998 -1.7758  1.9856  0.4675
 9292SOL     OW29295   5.713   0.550   5.350  0.1515  0.6234  0.6198
 9292SOL    HW129296   5.688   0.578   5.262 -1.4954 -0.0819  0.8072
 9292SOL    HW229297   5.743   0.629   5.393  0.5384  1.0700 -0.4341
 9293SOL     OW29298   4.677   3.539   0.866  0.0562  0.5561  0.4365
 9293SOL    HW129299   4.695   3.613   0.808  0.0037  0.2677  0.0476
 9293SOL    HW229300   4.760   3.523   0.911  1.2257 -1.4962 -2.1808
 9294SOL     OW29301   2.597   8.028   6.618 -0.2576  0.3663  0.1781
 9294SOL    HW129302   2.650   8.106   6.632 -2.0350  1.2262  2.9305
 9294SOL    HW229303   2.615   7.973   6.694 -0.4601 -1.0770 -0.7809
 9295SOL     OW29304   6.140   3.962   2.463  0.1153 -0.3132 -0.2500
 9295SOL    HW129305   6.101   3.977   2.549  0.4341  0.1414 -0.1751
 9295SOL    HW229306   6.072   3.919   2.412 -0.0177 -0.7361  0.2821
 9296SOL     OW29307   5.896   2.335   2.856 -0.9538  0.0849 -0.9556
 9296SOL    HW129308   5.817   2.324   2.909 -1.5707  1.3427 -1.5475
 9296SOL    HW229309   5.907   2.430   2.850  0.4059 -0.0705 -1.1936
 9297SOL     OW29310   1.227   0.129   7.657 -0.1593 -0.5491 -0.2796
 9297SOL    HW129311   1.312   0.171   7.642 -0.5012  0.6149  0.8639
 9297SOL    HW229312   1.163   0.195   7.630 -0.7322  0.1748  2.5377
 9298SOL     OW29313   2.329   2.162   4.465 -0.2254  0.0290  0.6427
 9298SOL    HW129314   2.301   2.119   4.546 -0.3714  1.0205  1.1332
 9298SOL    HW229315   2.411   2.206   4.489  1.4186 -2.1428 -0.5551
 9299SOL     OW29316   2.916   4.322   2.198 -0.7125  0.0352 -0.0091
 9299SOL    HW129317   2.896   4.339   2.106 -0.3420  0.0149 -0.0988
 9299SOL    HW229318   2.840   4.276   2.232 -1.9423  2.2035  0.3608
 9300SOL     OW29319   6.398   1.746   4.986  0.4281  0.1915 -0.1963
 9300SOL    HW129320   6.333   1.789   5.040 -0.1027 -0.1004 -0.5969
 9300SOL    HW229321   6.357   1.665   4.957  0.4946  0.5760 -1.4508
 9301SOL     OW29322   7.781   0.242   2.536 -0.3026 -0.2171  0.0479
 9301SOL    HW129323   7.841   0.250   2.463 -1.8259 -3.2077 -1.7029
 9301SOL    HW229324   7.695   0.266   2.500 -0.8783 -0.4374  1.2094
 9302SOL     OW29325   1.312   6.240   4.106 -0.4089 -0.0030 -0.7135
 9302SOL    HW129326   1.313   6.155   4.061 -0.9241  0.7151 -2.1599
 9302SOL    HW229327   1.244   6.231   4.172  0.5337 -1.1739  0.1456
 9303SOL     OW29328   4.591   7.760   4.537  0.0201 -0.0573 -0.6071
 9303SOL    HW129329   4.497   7.755   4.552  0.2309 -0.6880  0.6845
 9303SOL    HW229330   4.630   7.759   4.625  1.2741 -1.2112 -1.1203
 9304SOL     OW29331   3.977   7.362   6.428  0.5425 -0.0071 -0.5954
 9304SOL    HW129332   4.017   7.439   6.388 -3.2145  1.1870 -2.5158
 9304SOL    HW229333   3.911   7.397   6.488 -0.8452 -1.6888 -1.0656
 9305SOL     OW29334   0.184   4.735   3.094 -0.1426  0.4778 -0.1887
 9305SOL    HW129335   0.213   4.773   3.011  0.0659 -1.1105 -0.8944
 9305SOL    HW229336   0.123   4.800   3.130 -0.4603  1.0943 -1.7261
 9306SOL     OW29337   6.659   6.039   3.309 -0.0822  0.1048 -0.2782
 9306SOL    HW129338   6.685   5.984   3.383  2.4483  0.4408 -0.8239
 9306SOL    HW229339   6.650   5.977   3.236  0.6593  0.1513 -0.4132
 9307SOL     OW29340   4.086   2.591   3.736 -0.6178  0.9486 -0.3563
 9307SOL    HW129341   3.995   2.604   3.762 -0.1293  0.6540  1.6832
 9307SOL    HW229342   4.121   2.679   3.725 -0.7062  1.1306  0.6630
 9308SOL     OW29343   5.059   7.277   7.424  0.0473  0.3761  0.5268
 9308SOL    HW129344   5.002   7.352   7.443  0.4996  0.7417  0.4773
 9308SOL    HW229345   5.058   7.225   7.505 -0.7256  0.1258  0.3632
 9309SOL     OW29346   6.841   1.645   6.535 -0.0929  0.0741 -0.5754
 9309SOL    HW129347   6.810   1.573   6.590 -0.3406  0.3786 -0.3092
 9309SOL    HW229348   6.804   1.626   6.449  1.1372 -0.9525 -0.9151
 9310SOL     OW29349   2.028   2.260   1.536 -0.2724  0.2000 -0.2529
 9310SOL    HW129350   2.000   2.319   1.466  1.8380  0.7974 -0.6577
 9310SOL    HW229351   2.015   2.173   1.500 -2.5491  0.3844 -0.0018
 9311SOL     OW29352   1.244   1.869   3.652  0.2422 -0.0932  0.2322
 9311SOL    HW129353   1.337   1.866   3.631  0.0462 -0.1652 -0.6697
 9311SOL    HW229354   1.236   1.937   3.719  0.7866  0.7978 -0.5896
 9312SOL     OW29355   7.086   6.933   4.788 -0.2627 -0.0174 -0.1228
 9312SOL    HW129356   7.141   6.895   4.720 -0.8737 -0.0993 -0.5751
 9312SOL    HW229357   7.142   6.935   4.866 -0.4261 -2.5024  0.1189
 9313SOL     OW29358   0.425   0.143   3.273  0.1911 -0.1223 -0.4226
 9313SOL    HW129359   0.479   0.090   3.215  0.5808 -0.4209  0.2027
 9313SOL    HW229360   0.474   0.224   3.285  0.3224 -0.2413 -0.1538
 9314SOL     OW29361   1.030   6.018   4.495 -0.6121  0.4920  0.1994
 9314SOL    HW129362   0.947   6.048   4.532 -0.5384  2.0057 -0.7747
 9314SOL    HW229363   1.091   6.015   4.568 -1.1471  0.8030  0.6605
 9315SOL     OW29364   6.919   6.019   7.631  0.4641  0.1345 -0.0636
 9315SOL    HW129365   6.936   5.926   7.647  1.2369  0.0504 -1.2291
 9315SOL    HW229366   6.953   6.035   7.542  2.4666  2.0508  0.9349
 9316SOL     OW29367   4.709   7.395   1.196  0.0865  0.7534 -0.2719
 9316SOL    HW129368   4.631   7.342   1.183  0.0265  0.9514 -0.7625
 9316SOL    HW229369   4.728   7.389   1.290  0.6842 -0.9591 -0.4811
 9317SOL     OW29370   2.738   2.904   0.994  0.7933 -0.2781  0.0732
 9317SOL    HW129371   2.744   2.865   0.907  0.3111  0.8697 -0.4958
 9317SOL    HW229372   2.826   2.936   1.012  0.2389  2.3681 -1.4232
 9318SOL     OW29373   6.248   2.907   1.292  0.0729  0.0698  0.1888
 9318SOL    HW129374   6.310   2.834   1.280  2.5929  2.1025 -0.0486
 9318SOL    HW229375   6.260   2.934   1.383 -1.2384 -0.1318  0.4299
 9319SOL     OW29376   7.563   1.525   5.071  0.5206 -0.1309 -0.0420
 9319SOL    HW129377   7.571   1.438   5.033 -0.2282 -1.0831  1.8774
 9319SOL    HW229378   7.528   1.511   5.158  1.1735  2.0392  0.6494
 9320SOL     OW29379   5.689   5.593   6.776  0.0957  0.8860  0.0715
 9320SOL    HW129380   5.672   5.614   6.685 -3.2433  3.2120  1.0442
 9320SOL    HW229381   5.650   5.506   6.789 -0.8827  1.2394 -0.4062
 9321SOL     OW29382   0.145   5.922   2.914 -0.0465  0.2876  0.0393
 9321SOL    HW129383   0.214   5.917   2.981 -1.5130  0.3337  1.6130
 9321SOL    HW229384   0.135   6.015   2.896  2.0050  0.1894 -2.1231
 9322SOL     OW29385   2.835   0.123   6.614 -0.1556  0.4145  0.0274
 9322SOL    HW129386   2.842   0.046   6.557 -0.1362  1.5001 -1.4849
 9322SOL    HW229387   2.908   0.114   6.676 -1.3580 -1.8255  1.2674
 9323SOL     OW29388   4.423   1.233   3.346 -0.7030 -0.1597  0.0364
 9323SOL    HW129389   4.477   1.159   3.372 -0.3313 -1.0828 -2.9688
 9323SOL    HW229390   4.349   1.231   3.406  0.2654 -1.7764  1.2516
 9324SOL     OW29391   2.482   1.640   1.997 -0.5726 -0.1496  0.4917
 9324SOL    HW129392   2.420   1.699   2.039 -0.5942 -0.5120  0.9783
 9324SOL    HW229393   2.481   1.666   1.905 -0.1620  0.9864  0.7841
 9325SOL     OW29394   0.655   2.044   7.061  0.5466  0.4034 -0.6789
 9325SOL    HW129395   0.588   2.102   7.098  0.1017 -1.1149  1.0171
 9325SOL    HW229396   0.621   1.955   7.076  2.1703 -0.3618 -1.3020
 9326SOL     OW29397   1.479   1.400   2.560  0.0123  0.7690  0.2366
 9326SOL    HW129398   1.572   1.378   2.559 -0.3772 -1.1024  0.1910
 9326SOL    HW229399   1.437   1.323   2.599 -1.7886  0.4027 -2.2038
 9327SOL     OW29400   3.100   3.593   6.023 -0.1603 -0.0634  0.6116
 9327SOL    HW129401   3.049   3.663   5.983  0.6725  0.0175 -0.3453
 9327SOL    HW229402   3.084   3.602   6.117  1.8968  3.0671  0.8184
 9328SOL     OW29403   4.556   6.827   2.968  0.1680  0.4774 -0.3691
 9328SOL    HW129404   4.603   6.777   3.034 -1.7783  0.2520  0.9161
 9328SOL    HW229405   4.501   6.762   2.924 -0.6267  1.0825 -0.2892
 9329SOL     OW29406   2.478   4.008   3.264  0.3070  0.2790  0.0911
 9329SOL    HW129407   2.410   3.948   3.233  0.2671 -0.2817  1.2293
 9329SOL    HW229408   2.472   4.083   3.204 -1.3812  0.2860  0.2085
 9330SOL     OW29409   0.483   4.086   4.096 -0.1554  0.0308  0.4188
 9330SOL    HW129410   0.537   4.031   4.039 -0.0126 -1.9589  2.3393
 9330SOL    HW229411   0.395   4.078   4.061  0.3669  1.4795 -1.3945
 9331SOL     OW29412   7.420   0.012   7.222 -0.5789  0.7481 -0.0112
 9331SOL    HW129413   7.473  -0.017   7.148 -0.8073  1.2365 -0.3721
 9331SOL    HW229414   7.483   0.049   7.284 -0.5234  1.5763 -0.5583
 9332SOL     OW29415   4.536   6.584   7.462 -0.0089  0.2901 -0.3649
 9332SOL    HW129416   4.536   6.561   7.369 -0.3759 -0.5503 -0.1586
 9332SOL    HW229417   4.541   6.500   7.508 -0.2780  0.6787  0.3844
 9333SOL     OW29418   6.034   5.620   2.593  0.5349 -0.0264 -0.2676
 9333SOL    HW129419   6.043   5.715   2.588 -1.4651  0.1755 -0.9837
 9333SOL    HW229420   5.962   5.606   2.654  0.9655 -1.1023  0.0101
 9334SOL     OW29421   0.694   4.750   5.111  0.6919  0.0607 -0.2016
 9334SOL    HW129422   0.637   4.746   5.034 -0.5023 -0.2469  0.6687
 9334SOL    HW229423   0.740   4.666   5.111 -0.0780 -0.3773 -0.0263
 9335SOL     OW29424   4.375   0.997   0.929 -0.2454 -1.3012 -0.6943
 9335SOL    HW129425   4.447   0.952   0.974 -0.6477 -1.8107 -0.5561
 9335SOL    HW229426   4.314   1.020   0.999 -0.5172 -1.4244 -0.8898
 9336SOL     OW29427   3.799   0.083   6.249 -0.3292 -0.7324 -0.4013
 9336SOL    HW129428   3.737   0.015   6.224  0.9014 -0.8010 -3.9279
 9336SOL    HW229429   3.869   0.037   6.296 -1.4509 -1.1324  0.9336
 9337SOL     OW29430   6.048   5.958   3.563 -0.0853  0.5229  0.2656
 9337SOL    HW129431   6.082   5.961   3.652 -0.7305 -1.6461  0.6298
 9337SOL    HW229432   6.089   5.881   3.524 -3.1511 -1.2466  0.2042
 9338SOL     OW29433   6.468   7.846   8.031  1.0178 -0.2507 -0.1158
 9338SOL    HW129434   6.475   7.827   7.937 -0.4758  3.6501 -1.2449
 9338SOL    HW229435   6.381   7.815   8.055  0.0763  1.5367 -0.9787
 9339SOL     OW29436   1.719   6.568   1.601 -0.2532 -0.5036  0.4276
 9339SOL    HW129437   1.703   6.646   1.655  0.7072 -0.6858  0.9967
 9339SOL    HW229438   1.805   6.537   1.629  1.1121  0.3774 -2.3924
 9340SOL     OW29439   5.733   5.227   1.582 -0.2818 -0.0355 -0.1191
 9340SOL    HW129440   5.820   5.260   1.560  0.8168 -3.5485 -1.8536
 9340SOL    HW229441   5.690   5.214   1.498 -2.3737  1.1631  0.6881
 9341SOL     OW29442   2.485   5.544   2.013  0.5839  0.1240  0.5587
 9341SOL    HW129443   2.428   5.620   2.005  0.9550  0.2831 -0.9214
 9341SOL    HW229444   2.429   5.475   2.050 -0.9283 -0.0396 -1.7966
 9342SOL     OW29445   1.830   2.022   5.287  1.1872 -0.7125  0.0548
 9342SOL    HW129446   1.892   1.990   5.221  0.3598 -3.1280  0.3414
 9342SOL    HW229447   1.805   2.109   5.256  2.3632 -0.9445 -1.7142
 9343SOL     OW29448   0.238   2.751   1.687 -0.3325  0.3195  0.3352
 9343SOL    HW129449   0.307   2.782   1.745 -0.7012  2.5961 -0.3290
 9343SOL    HW229450   0.277   2.754   1.599 -0.6624 -0.2949  0.1605
 9344SOL     OW29451   1.672   3.246   5.346  0.3281 -0.2221  0.3489
 9344SOL    HW129452   1.722   3.284   5.418  0.1010  1.6460 -0.4046
 9344SOL    HW229453   1.580   3.258   5.371  0.2539 -0.1592  0.0584
 9345SOL     OW29454   2.056   0.770   7.498 -0.3931  0.6882  0.7136
 9345SOL    HW129455   2.026   0.853   7.460  0.9975  1.8105  1.9684
 9345SOL    HW229456   2.148   0.763   7.473 -0.0684  0.3311  1.9264
 9346SOL     OW29457   4.302   0.586   1.894  0.2370  0.1405 -0.2016
 9346SOL    HW129458   4.321   0.522   1.963 -0.1523 -0.2423 -0.4403
 9346SOL    HW229459   4.347   0.551   1.817 -1.7651 -1.0692 -0.9219
 9347SOL     OW29460   3.223   3.370   5.408 -0.6023  0.0261  0.0492
 9347SOL    HW129461   3.242   3.408   5.494 -0.7270 -1.9110  0.9829
 9347SOL    HW229462   3.166   3.296   5.427 -0.2388 -0.7323 -1.6755
 9348SOL     OW29463   0.264   3.306   1.264 -0.8257 -0.1811 -0.2198
 9348SOL    HW129464   0.227   3.394   1.267 -1.4135 -0.4458  0.6508
 9348SOL    HW229465   0.305   3.294   1.350  0.9980 -0.0343 -1.0090
 9349SOL     OW29466   3.622   2.605   5.849 -0.0880 -0.5108  0.4562
 9349SOL    HW129467   3.605   2.511   5.855 -2.2386 -0.1382  1.1684
 9349SOL    HW229468   3.651   2.629   5.937 -0.9980 -0.2851  0.7065
 9350SOL     OW29469   4.690   5.338   0.206 -0.0726  0.1229  0.4300
 9350SOL    HW129470   4.671   5.415   0.261 -0.6315  0.2765  0.0319
 9350SOL    HW229471   4.732   5.375   0.128 -0.1777  0.0006  0.3171
 9351SOL     OW29472   4.983   5.543   3.978  0.2246  0.4915 -0.1742
 9351SOL    HW129473   4.980   5.469   4.039  0.1052  0.4752 -0.2005
 9351SOL    HW229474   4.921   5.606   4.013 -0.4113  0.1685 -0.6878
 9352SOL     OW29475   1.850   6.490   5.129 -0.3794 -0.2874 -0.1783
 9352SOL    HW129476   1.884   6.575   5.156 -1.2038 -0.4563  1.5553
 9352SOL    HW229477   1.919   6.452   5.074  0.3568  1.1244 -0.2700
 9353SOL     OW29478   2.176   4.760   1.769  0.3724 -0.1362 -0.2136
 9353SOL    HW129479   2.129   4.744   1.687  0.7758  0.6147 -0.5954
 9353SOL    HW229480   2.107   4.767   1.835 -0.0164  0.2664 -0.6551
 9354SOL     OW29481   6.135   0.073   6.190  0.2980  0.5763  0.0282
 9354SOL    HW129482   6.097  -0.014   6.179 -0.9402  1.1944 -0.8971
 9354SOL    HW229483   6.190   0.084   6.112  0.3051  0.6832  0.0488
 9355SOL     OW29484   7.851   2.178   6.697 -0.0803  0.3119 -0.1310
 9355SOL    HW129485   7.878   2.243   6.633  1.0898  0.1120  0.1417
 9355SOL    HW229486   7.846   2.225   6.780 -0.0140  0.2274 -0.0784
 9356SOL     OW29487   4.551   7.086   2.895 -0.2763  0.6250 -0.8501
 9356SOL    HW129488   4.564   7.002   2.938  0.2613  0.4510 -1.3334
 9356SOL    HW229489   4.595   7.150   2.952  0.0299  0.4639 -0.9084
 9357SOL     OW29490   7.436   4.815   0.567  0.0034  0.7922  0.2308
 9357SOL    HW129491   7.469   4.744   0.621  1.0770  0.5734 -0.6770
 9357SOL    HW229492   7.346   4.789   0.545  0.1567  0.0525  0.4814
 9358SOL     OW29493   5.936   3.966   7.765 -0.2621 -0.3971  0.0630
 9358SOL    HW129494   5.983   3.911   7.828 -2.5195 -3.9755 -1.0898
 9358SOL    HW229495   5.988   3.960   7.685  0.4460  0.7874  0.4009
 9359SOL     OW29496   6.961   1.794   1.413  0.8717 -0.0288  0.3518
 9359SOL    HW129497   6.950   1.725   1.478  0.7617 -0.9077 -0.5735
 9359SOL    HW229498   7.056   1.804   1.406  0.9594 -1.3468 -0.7686
 9360SOL     OW29499   4.555   0.060   7.471 -0.1460 -0.0497 -0.0264
 9360SOL    HW129500   4.488   0.035   7.407 -0.0695 -1.4421  0.3938
 9360SOL    HW229501   4.563   0.154   7.462  0.2423 -0.2458 -2.4531
 9361SOL     OW29502   5.174   0.498   7.503 -0.4534  0.4436  0.6140
 9361SOL    HW129503   5.264   0.465   7.496 -0.1679  0.5158  3.0848
 9361SOL    HW229504   5.183   0.584   7.543 -1.5743  0.9235 -0.1405
 9362SOL     OW29505   3.255   4.017   0.085 -0.2319 -0.4372 -0.2655
 9362SOL    HW129506   3.333   3.963   0.075  0.8491  1.2735 -1.6777
 9362SOL    HW229507   3.256   4.043   0.178  0.6939 -0.7090 -0.1849
 9363SOL     OW29508   7.913   4.187   1.600 -0.1239 -0.0166  0.2183
 9363SOL    HW129509   7.923   4.262   1.658  0.0912  1.5006 -1.6628
 9363SOL    HW229510   7.837   4.209   1.546 -0.6558 -1.6241  0.2639
 9364SOL     OW29511   1.099   1.217   1.885 -0.0343 -0.3229  0.4795
 9364SOL    HW129512   1.130   1.173   1.964  0.5394  1.2017  1.1374
 9364SOL    HW229513   1.006   1.196   1.881  0.2547 -1.7242  0.6566
 9365SOL     OW29514   5.370   4.483   4.642  0.0036  0.1344 -0.2250
 9365SOL    HW129515   5.284   4.490   4.601  0.7953  0.7718 -1.8664
 9365SOL    HW229516   5.419   4.423   4.585  0.9408  0.5142  0.1573
 9366SOL     OW29517   2.924   6.009   1.148 -0.2731 -0.0809  0.1423
 9366SOL    HW129518   2.946   6.074   1.082 -0.5300 -0.7620 -0.6335
 9366SOL    HW229519   2.928   5.925   1.102  1.3163 -0.7652  1.4224
 9367SOL     OW29520   7.583   0.735   2.670  0.0414  0.4836 -0.4376
 9367SOL    HW129521   7.494   0.765   2.686  0.1666 -0.3673  2.2306
 9367SOL    HW229522   7.622   0.725   2.757  1.6650 -2.3812 -1.3708
 9368SOL     OW29523   5.119   2.950   0.634 -0.3154  0.3754  0.6194
 9368SOL    HW129524   5.121   2.889   0.560 -0.0429  1.5348 -0.3598
 9368SOL    HW229525   5.210   2.976   0.645 -0.2507 -0.3001  1.8326
 9369SOL     OW29526   6.868   6.788   2.344  0.1534 -0.2625 -0.3222
 9369SOL    HW129527   6.892   6.876   2.315  1.9358 -1.1059 -1.5926
 9369SOL    HW229528   6.842   6.743   2.264 -1.9422 -0.5857  0.4820
 9370SOL     OW29529   4.008   2.617   1.466 -0.2093  0.6852  0.3679
 9370SOL    HW129530   4.049   2.698   1.436  0.3149 -0.0153 -0.8613
 9370SOL    HW229531   3.935   2.603   1.406 -0.0182  0.0222  0.2766
 9371SOL     OW29532   6.758   1.703   2.363 -0.6122  0.2363 -0.1095
 9371SOL    HW129533   6.768   1.656   2.280 -2.6840 -1.5688  0.5491
 9371SOL    HW229534   6.668   1.737   2.360 -0.5436  0.5711  1.1562
 9372SOL     OW29535   1.419   7.511   2.946  0.2043 -0.5102 -0.0108
 9372SOL    HW129536   1.422   7.601   2.980  2.1292  0.3101 -2.0449
 9372SOL    HW229537   1.492   7.507   2.884  0.0695 -3.4608 -0.1110
 9373SOL     OW29538   6.700   0.695   7.279 -0.6641 -0.2489  0.0948
 9373SOL    HW129539   6.753   0.699   7.200  1.6086 -0.0751  1.5119
 9373SOL    HW229540   6.762   0.671   7.348 -2.1721  1.2909  2.1276
 9374SOL     OW29541   0.860   5.377   2.283  0.1340 -0.5573 -0.3350
 9374SOL    HW129542   0.831   5.306   2.226 -1.4440 -0.0758 -0.1956
 9374SOL    HW229543   0.801   5.372   2.358  0.0003  0.8945 -0.3278
 9375SOL     OW29544   1.762   4.290   7.727 -0.1563  0.1704 -0.6598
 9375SOL    HW129545   1.701   4.364   7.719 -0.5667 -0.0545  0.2619
 9375SOL    HW229546   1.825   4.318   7.794 -0.8492 -0.6527  0.3695
 9376SOL     OW29547   7.632   5.638   5.018  0.1517  0.0560  0.0307
 9376SOL    HW129548   7.583   5.635   5.100  1.2477 -1.7171  0.6739
 9376SOL    HW229549   7.723   5.628   5.044  0.5274 -0.4844 -1.3944
 9377SOL     OW29550   2.644   1.308   0.705 -0.5746  0.0099  0.0152
 9377SOL    HW129551   2.721   1.296   0.760  0.9077  1.3714 -1.6652
 9377SOL    HW229552   2.583   1.358   0.760  0.2370  0.0418  0.9246
 9378SOL     OW29553   0.091   1.227   2.105  0.7837  0.6870 -0.1177
 9378SOL    HW129554   0.182   1.254   2.095  0.9531  0.9674  1.8420
 9378SOL    HW229555   0.041   1.308   2.095  0.8071  0.6696 -0.3841
 9379SOL     OW29556   8.017   0.342   6.226 -0.6541  0.1043 -0.3048
 9379SOL    HW129557   7.947   0.376   6.171 -1.1456 -0.2258  0.1078
 9379SOL    HW229558   7.978   0.268   6.272 -0.5177  0.8847  1.1277
 9380SOL     OW29559   4.960   2.842   1.509 -0.3744  0.1839  0.1105
 9380SOL    HW129560   5.024   2.829   1.579  0.3673  0.5677 -0.4775
 9380SOL    HW229561   5.013   2.860   1.431 -1.1795  2.5873  0.0203
 9381SOL     OW29562   4.787   5.041   2.076  0.2275  0.5954 -0.4130
 9381SOL    HW129563   4.758   5.121   2.120 -0.5337  0.3597 -0.4731
 9381SOL    HW229564   4.771   4.971   2.139 -1.3270  0.1910 -1.2199
 9382SOL     OW29565   5.887   4.175   5.062 -0.5410 -0.2660 -0.0271
 9382SOL    HW129566   5.944   4.166   4.986 -1.8779 -4.1941 -0.7569
 9382SOL    HW229567   5.936   4.135   5.134 -0.0463  1.7909  0.8762
 9383SOL     OW29568   5.622   3.060   5.473  0.0901  0.5779 -0.2018
 9383SOL    HW129569   5.627   3.083   5.566  0.3321 -0.4437  0.0532
 9383SOL    HW229570   5.530   3.038   5.459  0.1486  0.2316 -0.0680
 9384SOL     OW29571   1.862   0.494   7.382  0.2030 -0.0356 -0.6657
 9384SOL    HW129572   1.772   0.461   7.383 -0.0662  0.6861 -0.3849
 9384SOL    HW229573   1.892   0.485   7.472  0.1310  0.4720 -0.5907
 9385SOL     OW29574   3.513   1.146   0.319  0.3166  0.3088 -0.1651
 9385SOL    HW129575   3.510   1.119   0.227  0.4180  1.4736 -0.5213
 9385SOL    HW229576   3.568   1.080   0.361  2.5365  1.2140 -1.4766
 9386SOL     OW29577   6.402   4.559   2.867 -0.5333  0.0309  0.0680
 9386SOL    HW129578   6.396   4.493   2.797  0.9903  0.0434 -0.1019
 9386SOL    HW229579   6.433   4.638   2.823 -0.7146  0.3807  0.5635
 9387SOL     OW29580   0.695   7.310   3.308 -0.4783 -0.4181  0.0161
 9387SOL    HW129581   0.646   7.317   3.390 -0.5438 -0.8862  0.0234
 9387SOL    HW229582   0.628   7.307   3.240 -0.3943  1.9563 -0.2473
 9388SOL     OW29583   0.394   2.600   0.698 -0.0056 -0.7237  0.3673
 9388SOL    HW129584   0.481   2.564   0.716  0.1613  0.6819  2.8631
 9388SOL    HW229585   0.409   2.670   0.636  0.4320 -1.3096 -0.2055
 9389SOL     OW29586   7.454   1.280   7.529 -0.3428  0.2647  0.3259
 9389SOL    HW129587   7.367   1.318   7.521  0.2580  1.6046 -0.2231
 9389SOL    HW229588   7.505   1.346   7.577  0.3791 -0.4752  0.6108
 9390SOL     OW29589   2.647   4.268   4.342  0.5367 -0.1712  0.0404
 9390SOL    HW129590   2.588   4.193   4.347  0.3162  0.0756  2.0047
 9390SOL    HW229591   2.726   4.234   4.301 -0.1790 -1.0472 -0.6433
 9391SOL     OW29592   2.483   3.256   6.716  0.6907 -0.1926 -0.0267
 9391SOL    HW129593   2.542   3.193   6.758  0.1713 -0.6016  0.1110
 9391SOL    HW229594   2.396   3.216   6.723  0.3173  0.6308  0.2398
 9392SOL     OW29595   3.867   2.951   0.675  0.1834 -0.1323  0.1599
 9392SOL    HW129596   3.829   2.946   0.587 -0.2934 -0.0352  0.3595
 9392SOL    HW229597   3.918   2.870   0.683 -1.8419 -1.4357  0.7448
 9393SOL     OW29598   4.840   0.550   3.422  0.2705  1.2324  0.0343
 9393SOL    HW129599   4.756   0.517   3.453  0.2190  1.7176  0.4127
 9393SOL    HW229600   4.855   0.503   3.340  1.1018 -1.1410  1.4552
 9394SOL     OW29601   4.835   6.204   1.770  0.0595  0.3008 -0.5617
 9394SOL    HW129602   4.914   6.239   1.730  1.4987 -0.7093  1.2407
 9394SOL    HW229603   4.819   6.261   1.845  0.1058 -0.4988  0.0697
 9395SOL     OW29604   3.952   3.865   5.693  0.4412  0.0580 -0.3229
 9395SOL    HW129605   3.961   3.820   5.777  0.2265  0.5285 -0.0425
 9395SOL    HW229606   3.917   3.799   5.634  1.4490 -0.5257 -0.2779
 9396SOL     OW29607   1.471   5.410   0.800  0.0581 -0.2758  0.2579
 9396SOL    HW129608   1.566   5.400   0.804 -0.0215 -0.7258  2.1749
 9396SOL    HW229609   1.455   5.495   0.841 -0.4089 -0.5168  0.5748
 9397SOL     OW29610   5.798   1.792   2.980 -0.0918 -0.7303  0.1289
 9397SOL    HW129611   5.808   1.843   2.900  1.0345  0.1711  0.8078
 9397SOL    HW229612   5.716   1.823   3.018 -0.4878 -0.9653 -0.5205
 9398SOL     OW29613   7.049   5.004   0.287  0.1774  0.1744  0.3675
 9398SOL    HW129614   7.079   5.067   0.221  0.0775 -0.6803 -0.5016
 9398SOL    HW229615   6.991   4.945   0.240  1.3647 -1.4280  0.8309
 9399SOL     OW29616   0.753   3.856   5.215 -0.2644 -0.0508 -0.0393
 9399SOL    HW129617   0.686   3.873   5.281  0.4034  2.2579  0.1251
 9399SOL    HW229618   0.786   3.943   5.191  1.1918 -0.9848 -1.6671
 9400SOL     OW29619   3.848   5.577   3.261 -0.1545 -0.5188 -0.1834
 9400SOL    HW129620   3.755   5.587   3.240 -0.0811 -0.1841 -0.3466
 9400SOL    HW229621   3.893   5.635   3.200  0.1193 -0.1997  0.3139
 9401SOL     OW29622   7.458   6.779   0.900  0.8785 -0.1406 -0.8194
 9401SOL    HW129623   7.467   6.729   0.980  0.0817 -0.1611 -0.7320
 9401SOL    HW229624   7.522   6.851   0.908  0.0241  0.5149  0.3441
 9402SOL     OW29625   2.376   1.341   5.584 -0.0043  0.2561  0.2929
 9402SOL    HW129626   2.463   1.376   5.604 -0.4036  0.7930  1.1430
 9402SOL    HW229627   2.391   1.278   5.513  1.0385  0.5191  0.2660
 9403SOL     OW29628   0.841   5.617   0.308 -0.2694  0.1821  0.5185
 9403SOL    HW129629   0.867   5.525   0.319 -0.4415  0.2088  1.2509
 9403SOL    HW229630   0.918   5.667   0.333 -0.0352  0.2364 -0.3047
 9404SOL     OW29631   6.026   1.815   4.279 -0.3619 -0.0005  0.0979
 9404SOL    HW129632   5.954   1.861   4.236 -1.2406 -0.9701  0.4777
 9404SOL    HW229633   6.003   1.722   4.272 -0.3427 -0.2253  2.2661
 9405SOL     OW29634   3.037   5.032   0.990  0.3241  0.3476 -0.2846
 9405SOL    HW129635   3.082   4.984   1.059 -0.5275  1.6532  1.2420
 9405SOL    HW229636   2.983   4.966   0.946  0.8093 -0.4845  0.3537
 9406SOL     OW29637   1.150   1.255   2.374  0.1028 -0.2077  0.7823
 9406SOL    HW129638   1.226   1.294   2.331 -0.6286  2.7606  1.9527
 9406SOL    HW229639   1.075   1.302   2.338 -1.2003 -2.6108  0.1367
 9407SOL     OW29640   2.072   0.999   0.283  0.3296  0.6550  0.0129
 9407SOL    HW129641   1.982   0.966   0.280 -0.1615  1.6443  2.0661
 9407SOL    HW229642   2.123   0.934   0.236 -1.5046  0.2891 -1.5924
 9408SOL     OW29643   7.764   1.603   7.222  0.7786  0.7425  0.0916
 9408SOL    HW129644   7.705   1.563   7.159  0.0933  2.5031 -0.4288
 9408SOL    HW229645   7.823   1.532   7.247  0.4495 -0.2494 -1.7593
 9409SOL     OW29646   1.633   2.810   3.786 -0.2917 -0.2355 -0.0469
 9409SOL    HW129647   1.595   2.876   3.844 -0.4529  0.7477 -1.2349
 9409SOL    HW229648   1.559   2.753   3.764 -1.2482  1.7670 -2.4839
 9410SOL     OW29649   4.838   7.226   5.755  0.2898  0.2874  0.5194
 9410SOL    HW129650   4.838   7.242   5.849 -0.8357 -1.3048  0.8301
 9410SOL    HW229651   4.798   7.139   5.745 -0.6220  0.8711 -1.4984
 9411SOL     OW29652   3.542   2.161   3.397  0.2315 -0.6817  0.7885
 9411SOL    HW129653   3.481   2.133   3.329  0.4417  0.5596  0.0499
 9411SOL    HW229654   3.488   2.170   3.476 -0.2268 -1.1189  0.5258
 9412SOL     OW29655   7.940   3.964   6.982  0.0283  0.0040 -0.2349
 9412SOL    HW129656   7.964   4.011   7.062 -0.0827  0.2141 -0.3250
 9412SOL    HW229657   8.023   3.935   6.945  0.0310 -0.8874  0.4390
 9413SOL     OW29658   6.714   7.234   2.995 -0.3994 -0.4050  0.1175
 9413SOL    HW129659   6.634   7.199   2.957  0.1703 -1.2240 -0.3643
 9413SOL    HW229660   6.722   7.188   3.079  0.8113 -2.1970 -0.8977
 9414SOL     OW29661   4.127   6.423   0.692 -0.3506  0.1100  0.1822
 9414SOL    HW129662   4.213   6.411   0.732  2.1359  1.3613 -4.1151
 9414SOL    HW229663   4.116   6.518   0.688 -0.1609  0.0908 -2.3608
 9415SOL     OW29664   6.967   0.580   5.949 -0.1936 -0.3678  0.1944
 9415SOL    HW129665   7.047   0.558   5.997 -0.0815  1.5241  0.9379
 9415SOL    HW229666   6.905   0.512   5.974  0.7341 -1.0344  0.7512
 9416SOL     OW29667   2.037   5.662   3.442 -0.0750  0.2330 -0.1949
 9416SOL    HW129668   1.947   5.677   3.417 -0.0097  1.5971  0.3035
 9416SOL    HW229669   2.087   5.671   3.361 -0.4437 -1.4015 -0.6403
 9417SOL     OW29670   4.093   2.791   4.139 -0.0578 -0.5548  0.4834
 9417SOL    HW129671   4.004   2.807   4.170 -0.5785  0.1142 -1.1977
 9417SOL    HW229672   4.123   2.714   4.187 -1.6551 -0.9531  0.8799
 9418SOL     OW29673   2.829   4.115   5.523 -0.3427  0.1342  0.2853
 9418SOL    HW129674   2.867   4.131   5.437  1.7823 -0.1673  1.1094
 9418SOL    HW229675   2.752   4.173   5.526  0.7171  1.7136 -1.0198
 9419SOL     OW29676   5.527   0.196   7.535  0.9291  0.0646 -0.2607
 9419SOL    HW129677   5.502   0.175   7.625 -0.2367 -2.0042 -0.9862
 9419SOL    HW229678   5.619   0.223   7.541  0.3647  1.7530  1.7359
 9420SOL     OW29679   7.095   6.450   0.425 -0.1711  0.3239  0.1934
 9420SOL    HW129680   7.158   6.405   0.481  1.1197  2.4135  0.5534
 9420SOL    HW229681   7.094   6.540   0.458  1.9723  2.2150 -4.0723
 9421SOL     OW29682   2.440   5.861   5.310 -0.2218  0.2167  0.2483
 9421SOL    HW129683   2.345   5.876   5.301  0.0620  1.0037 -2.4754
 9421SOL    HW229684   2.469   5.845   5.221  2.0938 -1.0241  1.1677
 9422SOL     OW29685   5.056   1.585   0.839 -0.1496 -0.3116  0.0574
 9422SOL    HW129686   5.152   1.585   0.834 -0.1722 -0.0013 -0.3908
 9422SOL    HW229687   5.034   1.494   0.858  0.1321 -0.9362 -2.2763
 9423SOL     OW29688   1.048   7.391   3.050 -0.1288  0.2954  0.2086
 9423SOL    HW129689   0.982   7.442   3.003  0.5120 -0.5745 -1.7288
 9423SOL    HW229690   1.099   7.349   2.982  0.0169 -2.1528  1.6969
 9424SOL     OW29691   1.578   7.313   1.775 -0.2385  0.2856 -0.0718
 9424SOL    HW129692   1.500   7.351   1.816  0.1728 -0.2227  1.2518
 9424SOL    HW229693   1.554   7.222   1.758 -0.0670  0.2231  0.0124
 9425SOL     OW29694   3.228   0.682   3.592  0.2080 -0.5073 -0.4196
 9425SOL    HW129695   3.284   0.614   3.555  0.4317 -1.1498  1.0368
 9425SOL    HW229696   3.220   0.660   3.684 -0.5736  0.8731 -0.1181
 9426SOL     OW29697   3.469   2.586   7.133  0.0660 -0.4099 -0.0473
 9426SOL    HW129698   3.410   2.610   7.061  0.1819 -1.7069 -0.6075
 9426SOL    HW229699   3.517   2.666   7.152 -1.5538  0.5708  0.1276
 9427SOL     OW29700   0.961   0.110   0.846  0.0918  0.0545  0.0171
 9427SOL    HW129701   1.042   0.115   0.896  1.3705  0.2940 -1.9626
 9427SOL    HW229702   0.955   0.195   0.802 -0.9114 -0.1883 -0.3407
 9428SOL     OW29703   1.772   5.399   1.409  0.3825  0.9650 -0.2136
 9428SOL    HW129704   1.783   5.488   1.441  0.7785  1.1304 -0.7966
 9428SOL    HW229705   1.677   5.388   1.400  0.1863  0.6140  1.8207
 9429SOL     OW29706   3.653   3.409   2.394  0.0211  0.5343 -0.2752
 9429SOL    HW129707   3.623   3.495   2.424 -1.9504  0.0012 -0.5685
 9429SOL    HW229708   3.625   3.349   2.463  0.8956  0.0581 -0.3324
 9430SOL     OW29709   5.252   1.175   1.412 -0.4995 -0.7371  0.0389
 9430SOL    HW129710   5.207   1.213   1.336  0.6621 -1.1418 -0.8627
 9430SOL    HW229711   5.284   1.251   1.461 -0.0059 -0.5009 -0.6427
 9431SOL     OW29712   3.169   0.461   4.159  0.0937  0.0070 -0.7665
 9431SOL    HW129713   3.191   0.460   4.252  1.3464 -1.4203 -1.0354
 9431SOL    HW229714   3.251   0.441   4.115 -1.0324 -2.3141 -2.0103
 9432SOL     OW29715   0.166   6.076   0.527  0.7165 -0.1487 -0.2781
 9432SOL    HW129716   0.090   6.134   0.535  0.2657 -0.7892  0.3378
 9432SOL    HW229717   0.239   6.127   0.560  0.7990  0.9013 -2.0051
 9433SOL     OW29718   5.836   5.118   3.612 -0.9888 -0.0601 -0.4667
 9433SOL    HW129719   5.838   5.030   3.577 -2.4587  0.3998 -1.8182
 9433SOL    HW229720   5.778   5.112   3.688  1.3513 -0.8318  1.3825
 9434SOL     OW29721   6.353   4.476   7.844 -0.2458  0.7276  0.2781
 9434SOL    HW129722   6.340   4.400   7.787  0.9672  0.7385 -0.0218
 9434SOL    HW229723   6.270   4.523   7.839  0.0096  1.0474 -1.9494
 9435SOL     OW29724   4.085   3.771   4.966 -0.5045 -0.2727  0.1359
 9435SOL    HW129725   4.052   3.712   5.033  1.1448 -1.5580 -0.1291
 9435SOL    HW229726   4.100   3.715   4.890  2.6140  0.0654  0.3665
 9436SOL     OW29727   3.788   7.054   6.295  0.2478 -0.1897 -0.2507
 9436SOL    HW129728   3.855   7.100   6.245 -0.3095  1.1185  0.1411
 9436SOL    HW229729   3.814   7.065   6.387 -0.1588 -0.2083 -0.1280
 9437SOL     OW29730   2.217   0.215   0.283 -0.1158 -0.5637 -0.4439
 9437SOL    HW129731   2.200   0.138   0.337  1.1715  1.9802  4.1112
 9437SOL    HW229732   2.311   0.230   0.292 -0.0521  0.7371 -2.5502
 9438SOL     OW29733   6.436   4.042   1.622  1.0954 -0.1026  0.2783
 9438SOL    HW129734   6.346   4.011   1.613  0.8705  0.7073 -0.4165
 9438SOL    HW229735   6.485   3.966   1.654  0.5029 -1.0793 -1.0083
 9439SOL     OW29736   0.135   2.167   6.687 -0.0697  0.7474  0.1824
 9439SOL    HW129737   0.201   2.235   6.677  0.6388  0.1536  0.6277
 9439SOL    HW229738   0.185   2.085   6.677 -0.9696  0.3001 -0.7679
 9440SOL     OW29739   5.261   4.619   7.382  0.4591  0.4357 -0.7834
 9440SOL    HW129740   5.183   4.568   7.363  0.9573  0.1154 -2.0445
 9440SOL    HW229741   5.233   4.680   7.451 -1.2289  1.0946 -1.9718
 9441SOL     OW29742   0.433   7.315   0.661  0.2199 -0.4529 -0.1181
 9441SOL    HW129743   0.473   7.354   0.583  0.0049  0.2235  0.0996
 9441SOL    HW229744   0.444   7.221   0.649  2.6848 -0.3085  0.3210
 9442SOL     OW29745   0.696   0.420   0.546 -0.2395 -0.4693 -0.1365
 9442SOL    HW129746   0.709   0.464   0.462  0.4268 -0.3775  0.0138
 9442SOL    HW229747   0.638   0.478   0.595 -1.3784 -0.9581 -0.8684
 9443SOL     OW29748   1.550   7.660   6.561  0.2295  0.0071 -0.2993
 9443SOL    HW129749   1.492   7.674   6.486  0.1054 -0.2194 -0.2486
 9443SOL    HW229750   1.501   7.600   6.618 -1.8530  3.7946  2.3375
 9444SOL     OW29751   3.208   3.411   3.370 -0.5781 -0.2683 -0.2704
 9444SOL    HW129752   3.148   3.363   3.427  0.5831 -0.5131  0.7739
 9444SOL    HW229753   3.211   3.499   3.408  2.0011 -1.0338  1.5621
 9445SOL     OW29754   5.380   0.788   7.909 -0.0622 -0.4214 -0.3133
 9445SOL    HW129755   5.293   0.788   7.951  0.2991 -1.7629  0.4974
 9445SOL    HW229756   5.361   0.802   7.816 -1.0522  0.4705 -0.0015
 9446SOL     OW29757   6.696   6.785   6.871 -0.1741 -0.1227 -0.1004
 9446SOL    HW129758   6.727   6.852   6.933 -0.8392 -0.1611  0.2782
 9446SOL    HW229759   6.772   6.728   6.858 -0.1863 -0.4444  1.1270
 9447SOL     OW29760   1.821   3.892   4.084 -0.3166 -0.7472 -0.4793
 9447SOL    HW129761   1.888   3.910   4.149 -1.3264  0.8249  0.1920
 9447SOL    HW229762   1.862   3.914   4.000 -0.6276  2.4580  0.0926
 9448SOL     OW29763   7.544   1.361   3.365  0.5654 -0.0889 -0.1592
 9448SOL    HW129764   7.486   1.406   3.426  1.4307 -0.6587  1.1115
 9448SOL    HW229765   7.507   1.380   3.279 -2.1798 -1.3585  0.6266
 9449SOL     OW29766   0.702   1.267   1.828  0.2843 -0.9741  0.4427
 9449SOL    HW129767   0.627   1.315   1.865  0.1719 -0.0634 -0.8940
 9449SOL    HW229768   0.749   1.234   1.905 -0.6100 -0.1960  1.3612
 9450SOL     OW29769   6.530   7.749   4.066 -0.1066 -0.3728  1.0488
 9450SOL    HW129770   6.448   7.700   4.061  0.6579 -1.5999 -0.0377
 9450SOL    HW229771   6.527   7.790   4.153 -1.8260 -0.4292  1.0589
 9451SOL     OW29772   6.692   5.165   4.229 -0.0034 -0.6572  0.3181
 9451SOL    HW129773   6.781   5.142   4.202  0.8030 -0.1809  2.3499
 9451SOL    HW229774   6.699   5.178   4.324 -2.4335 -1.4498  0.6618
 9452SOL     OW29775   6.532   7.698   2.014  0.4360 -0.1626  0.1397
 9452SOL    HW129776   6.443   7.682   1.982  0.3021 -2.6097  1.4867
 9452SOL    HW229777   6.522   7.760   2.086 -0.1575 -0.3240  0.1994
 9453SOL     OW29778   4.144   0.275   1.875 -0.2809 -0.6298 -0.0561
 9453SOL    HW129779   4.073   0.329   1.840  0.7892  0.3655 -0.7858
 9453SOL    HW229780   4.146   0.295   1.968 -1.0574 -0.8004  0.0064
 9454SOL     OW29781   7.758   2.533   4.154 -0.5427 -0.5843  0.3215
 9454SOL    HW129782   7.731   2.608   4.101 -3.4952 -1.9644 -0.3609
 9454SOL    HW229783   7.776   2.569   4.240 -0.2634  1.0897 -0.4005
 9455SOL     OW29784   6.728   2.563   4.429  0.0357  0.0692 -0.0459
 9455SOL    HW129785   6.802   2.565   4.368  1.2497  2.6096  1.3262
 9455SOL    HW229786   6.652   2.544   4.374  1.5865 -2.2275 -1.5818
 9456SOL     OW29787   1.947   4.813   0.356 -0.3155 -0.2434  0.2187
 9456SOL    HW129788   2.009   4.815   0.428  1.1269 -0.3889 -0.9573
 9456SOL    HW229789   1.913   4.902   0.350 -1.8922 -0.6369  2.2060
 9457SOL     OW29790   2.031   7.358   0.690  0.5316 -0.5995 -0.5226
 9457SOL    HW129791   1.975   7.433   0.711  2.1578 -0.0468  2.4900
 9457SOL    HW229792   1.977   7.282   0.709 -0.1713 -0.1439 -0.6597
 9458SOL     OW29793   2.300   2.328   0.209  0.5759  0.3497  0.0203
 9458SOL    HW129794   2.309   2.373   0.293 -1.0261  0.4023  0.1938
 9458SOL    HW229795   2.374   2.359   0.157  0.5130  1.7972  0.7504
 9459SOL     OW29796   2.359   5.002   7.215  0.0452  0.7767  0.2443
 9459SOL    HW129797   2.335   5.021   7.124 -1.6000  1.5089  0.7864
 9459SOL    HW229798   2.394   4.913   7.213  0.4362  0.9416 -1.1645
 9460SOL     OW29799   2.198   2.767   7.494  0.5007 -0.2296 -0.0561
 9460SOL    HW129800   2.279   2.783   7.445 -0.1804  0.2030 -1.0814
 9460SOL    HW229801   2.163   2.686   7.456 -0.1955  0.2806 -0.5341
 9461SOL     OW29802   0.952   5.556   3.405  0.0142 -0.5865  0.3824
 9461SOL    HW129803   0.922   5.642   3.434  2.5212  0.0163  1.4639
 9461SOL    HW229804   0.881   5.523   3.349 -0.8176  2.3593 -0.4734
 9462SOL     OW29805   4.727   3.455   6.594 -0.6396 -0.5674 -0.0074
 9462SOL    HW129806   4.665   3.506   6.647  0.4630  0.0642  0.6986
 9462SOL    HW229807   4.700   3.364   6.608 -2.4075 -0.2475 -1.0026
 9463SOL     OW29808   3.976   2.440   2.587  0.2923 -0.5271  0.2034
 9463SOL    HW129809   4.035   2.475   2.520 -0.4779  0.1762 -0.1297
 9463SOL    HW229810   3.899   2.497   2.583 -0.2864 -1.2407  0.8350
 9464SOL     OW29811   7.638   7.254   6.389  0.3869  0.5596 -0.5198
 9464SOL    HW129812   7.690   7.184   6.429  0.9410 -0.1359 -2.3519
 9464SOL    HW229813   7.554   7.250   6.434  0.9423 -0.2503  0.4798
 9465SOL     OW29814   3.420   1.356   7.753 -0.0014  0.2574 -0.3405
 9465SOL    HW129815   3.451   1.355   7.663 -0.5337  0.8087 -0.5367
 9465SOL    HW229816   3.494   1.323   7.805  0.3533  0.0746 -0.9561
 9466SOL     OW29817   6.682   0.109   0.100  0.5796  0.2194  0.0182
 9466SOL    HW129818   6.702   0.110   0.194 -0.3312  0.0897  0.2157
 9466SOL    HW229819   6.768   0.110   0.058  1.0249 -0.9122  0.8573
 9467SOL     OW29820   2.036   2.065   1.286 -0.0290  0.0367  0.0829
 9467SOL    HW129821   1.963   2.113   1.247  0.5415  1.1402  0.3308
 9467SOL    HW229822   2.011   1.973   1.279 -2.0908  0.4224  1.4132
 9468SOL     OW29823   8.042   2.182   6.439  0.3046 -0.6036 -0.2012
 9468SOL    HW129824   8.081   2.182   6.526 -0.9627  0.4020  0.4108
 9468SOL    HW229825   8.074   2.262   6.398 -2.0003  0.9320  0.7929
 9469SOL     OW29826   7.839   2.452   3.439 -0.9488 -0.2542  0.0039
 9469SOL    HW129827   7.834   2.365   3.479  3.1763 -0.0541  1.4111
 9469SOL    HW229828   7.781   2.507   3.492 -2.2848 -1.7185  0.1473
 9470SOL     OW29829   3.737   6.341   3.288 -0.1575 -0.4615 -0.0569
 9470SOL    HW129830   3.815   6.297   3.254  1.3204  1.1806  1.0280
 9470SOL    HW229831   3.730   6.420   3.236 -0.6993 -0.2672  0.3077
 9471SOL     OW29832   6.982   4.260   7.297 -0.0615  0.2727 -0.4649
 9471SOL    HW129833   7.019   4.345   7.273  1.1488  0.1739  0.8986
 9471SOL    HW229834   7.033   4.232   7.374  0.3507 -2.1946 -1.5232
 9472SOL     OW29835   4.923   3.367   1.812  0.2416  0.4258  0.1611
 9472SOL    HW129836   4.863   3.414   1.870 -0.0230 -0.9405  1.0484
 9472SOL    HW229837   4.964   3.435   1.759 -2.0325  1.4285 -0.4405
 9473SOL     OW29838   5.539   5.598   4.045 -0.1201 -0.1753 -0.3203
 9473SOL    HW129839   5.554   5.569   4.135 -2.1669 -2.2329 -0.5564
 9473SOL    HW229840   5.562   5.691   4.047  1.1968 -0.4461  1.9542
 9474SOL     OW29841   2.404   7.765   6.833 -0.3594 -0.1898  0.0355
 9474SOL    HW129842   2.420   7.676   6.802 -0.1675 -0.4333  0.8250
 9474SOL    HW229843   2.309   7.771   6.841 -0.4314 -0.0288 -0.8675
 9475SOL     OW29844   6.706   5.290   5.441  0.8677 -0.5995  0.2833
 9475SOL    HW129845   6.757   5.314   5.363  0.3505 -0.3953 -0.0008
 9475SOL    HW229846   6.626   5.251   5.406  0.6035 -0.4504  0.7124
 9476SOL     OW29847   5.968   3.679   3.601 -0.0484 -0.2915  0.1303
 9476SOL    HW129848   6.019   3.608   3.563  1.7983  0.7221  0.6043
 9476SOL    HW229849   6.019   3.707   3.677 -1.9060  0.0319  1.3214
 9477SOL     OW29850   2.279   1.803   7.738 -0.3667 -0.2199  0.3973
 9477SOL    HW129851   2.187   1.802   7.710  0.3724  0.7986 -2.4045
 9477SOL    HW229852   2.304   1.711   7.742 -1.5938 -0.5446  1.7423
 9478SOL     OW29853   7.990   5.357   4.361  0.2991 -0.3335  0.1699
 9478SOL    HW129854   8.063   5.396   4.313  1.2136 -0.2905  1.5203
 9478SOL    HW229855   8.014   5.265   4.371 -0.3137 -0.5448 -0.2132
 9479SOL     OW29856   0.433   1.188   4.593 -0.0453  0.6822 -0.4691
 9479SOL    HW129857   0.347   1.159   4.624 -0.0355  1.5479  0.4406
 9479SOL    HW229858   0.482   1.207   4.673  0.1630  2.5195 -0.9740
 9480SOL     OW29859   4.923   4.458   3.187  0.8095 -0.2486  0.1823
 9480SOL    HW129860   4.883   4.545   3.187 -0.4198 -0.7563  1.6273
 9480SOL    HW229861   4.913   4.426   3.098  0.3941  0.7084 -0.1244
 9481SOL     OW29862   8.016   5.804   7.434 -0.0358  0.0695  0.5355
 9481SOL    HW129863   8.076   5.738   7.468  1.4867  1.3794  0.4984
 9481SOL    HW229864   7.992   5.772   7.347  0.2349 -0.7003  0.7366
 9482SOL     OW29865   0.263   0.911   2.947  0.0175 -0.8516  0.2191
 9482SOL    HW129866   0.314   0.842   2.990  0.4581 -0.5664  0.1531
 9482SOL    HW229867   0.224   0.867   2.870 -0.7581 -1.3569  0.8800
 9483SOL     OW29868   3.784   7.656   2.857 -0.0887 -0.2001 -0.2420
 9483SOL    HW129869   3.769   7.604   2.778 -1.0635 -0.2893 -0.0116
 9483SOL    HW229870   3.822   7.594   2.920  1.8421  0.1386 -0.9862
 9484SOL     OW29871   1.214   6.606   5.868  0.0010  0.0154 -0.1483
 9484SOL    HW129872   1.286   6.543   5.880 -0.0003  0.1738  0.7861
 9484SOL    HW229873   1.173   6.579   5.786  1.9107  0.7186 -1.3965
 9485SOL     OW29874   5.988   3.817   4.987  0.4105  0.2344  0.7069
 9485SOL    HW129875   5.905   3.771   4.990  0.1044  0.7816  0.8305
 9485SOL    HW229876   5.971   3.894   4.932  1.1323 -0.2228 -0.1903
 9486SOL     OW29877   5.558   6.187   4.609  0.8708 -0.1345  0.3198
 9486SOL    HW129878   5.527   6.227   4.690 -0.4472  0.9896 -0.6753
 9486SOL    HW229879   5.505   6.108   4.600  0.6198  0.0386  0.2744
 9487SOL     OW29880   4.752   6.906   7.908 -0.3504  0.5389 -0.4951
 9487SOL    HW129881   4.807   6.960   7.965 -0.9760 -0.2299  0.8916
 9487SOL    HW229882   4.770   6.938   7.820  2.5654  0.1216 -0.1712
 9488SOL     OW29883   5.003   6.680   6.981 -0.1018 -0.3506  0.3955
 9488SOL    HW129884   4.940   6.752   6.984 -1.5611 -1.5137 -0.4827
 9488SOL    HW229885   5.048   6.691   6.897 -1.2949 -1.1604 -0.4000
 9489SOL     OW29886   6.909   2.534   4.226 -0.2403 -0.7231  0.4597
 9489SOL    HW129887   6.852   2.503   4.155 -1.5180 -0.1351  1.2004
 9489SOL    HW229888   6.994   2.546   4.184 -0.6457 -1.6068 -0.6841
 9490SOL     OW29889   2.019   1.211   6.267 -0.0660 -0.0875 -0.2120
 9490SOL    HW129890   1.936   1.232   6.311 -0.7231 -2.3275 -0.2602
 9490SOL    HW229891   2.068   1.160   6.331 -0.1278 -1.5454 -1.2615
 9491SOL     OW29892   2.769   0.460   2.640 -0.3163  0.3071  0.8485
 9491SOL    HW129893   2.860   0.487   2.656  0.3334 -1.5339  0.5217
 9491SOL    HW229894   2.737   0.521   2.575  1.8902 -1.0453 -1.7240
 9492SOL     OW29895   6.602   6.118   1.225  0.1378  0.1354  0.2643
 9492SOL    HW129896   6.665   6.176   1.182 -0.4922  0.1117 -0.7151
 9492SOL    HW229897   6.517   6.142   1.189 -0.1100 -1.5808 -0.4158
 9493SOL     OW29898   2.686   7.990   4.743 -0.0123  0.5297 -0.2097
 9493SOL    HW129899   2.602   7.946   4.735  1.3007 -2.3181  0.6308
 9493SOL    HW229900   2.727   7.980   4.657  0.4674 -0.3542  0.1094
 9494SOL     OW29901   6.681   3.403   1.953  0.3786 -0.2100  0.0068
 9494SOL    HW129902   6.659   3.344   1.882 -0.7473 -1.3477  1.2414
 9494SOL    HW229903   6.597   3.431   1.989  0.9136 -0.0167  1.1663
 9495SOL     OW29904   1.363   5.465   1.107  0.1974  0.2499  0.0318
 9495SOL    HW129905   1.329   5.394   1.053  0.5920  1.1728 -1.4972
 9495SOL    HW229906   1.287   5.519   1.127 -0.2436 -0.9590  1.8517
 9496SOL     OW29907   6.728   7.794   4.613  0.2468 -0.5075 -0.0840
 9496SOL    HW129908   6.695   7.704   4.603  0.8491 -0.7953  0.4531
 9496SOL    HW229909   6.821   7.783   4.634  0.1200  0.2162  0.9089
 9497SOL     OW29910   5.404   4.691   2.271  0.4846  0.1119  0.2391
 9497SOL    HW129911   5.423   4.775   2.230 -1.2785  0.8696  0.8674
 9497SOL    HW229912   5.459   4.688   2.349  0.3259  0.8382  0.3828
 9498SOL     OW29913   2.745   7.482   5.825  0.0161  0.6443  0.5722
 9498SOL    HW129914   2.720   7.391   5.841 -1.3466  1.3461  3.0760
 9498SOL    HW229915   2.736   7.494   5.731  0.4842 -1.8476  0.1492
 9499SOL     OW29916   8.048   5.717   6.921 -0.0917  0.3607  0.3210
 9499SOL    HW129917   8.086   5.744   6.837 -0.8459  1.1317  0.2128
 9499SOL    HW229918   8.013   5.630   6.905  1.4881 -0.3240  0.3911
 9500SOL     OW29919   3.266   5.636   7.024 -0.1419 -0.0142 -0.0136
 9500SOL    HW129920   3.306   5.681   7.099  0.5387  1.0123 -0.9701
 9500SOL    HW229921   3.205   5.699   6.987  1.0472  0.2883 -1.5577
 9501SOL     OW29922   1.190   1.962   0.869 -0.4006 -0.2550 -0.1827
 9501SOL    HW129923   1.194   1.901   0.795 -0.3621 -1.0533  0.4704
 9501SOL    HW229924   1.097   1.966   0.890 -0.5278  0.7173 -0.8746
 9502SOL     OW29925   7.263   5.879   0.842 -0.6278  0.4698 -0.1707
 9502SOL    HW129926   7.200   5.913   0.906 -1.1846  2.2494 -1.5656
 9502SOL    HW229927   7.214   5.814   0.793 -0.9182  0.7624 -0.2719
 9503SOL     OW29928   0.895   6.968   3.590  0.5253  0.2185  0.2444
 9503SOL    HW129929   0.955   6.986   3.518 -0.0723 -0.7274 -0.5116
 9503SOL    HW229930   0.856   7.053   3.610  0.7645  0.5098 -0.4905
 9504SOL     OW29931   3.281   5.268   2.306  0.5770 -0.5856  0.2023
 9504SOL    HW129932   3.367   5.288   2.267  0.2891 -1.1222 -0.7527
 9504SOL    HW229933   3.258   5.183   2.268 -0.1396 -0.7005  0.8792
 9505SOL     OW29934   0.456   2.066   6.194 -0.3675 -0.5373  0.2832
 9505SOL    HW129935   0.462   2.153   6.156  1.1643  0.0256  1.6988
 9505SOL    HW229936   0.539   2.054   6.240 -1.6152 -1.6174  2.4220
 9506SOL     OW29937   5.332   1.595   0.802 -0.2020 -0.5561  0.8801
 9506SOL    HW129938   5.399   1.655   0.768  1.8370 -1.6084  2.7832
 9506SOL    HW229939   5.330   1.523   0.739  0.0677 -0.2603  0.5294
 9507SOL     OW29940   2.655   1.320   4.376  0.4385 -0.4928 -0.2024
 9507SOL    HW129941   2.682   1.390   4.435 -0.0229 -0.2401 -0.2888
 9507SOL    HW229942   2.690   1.345   4.290  1.4422 -1.0549  0.0388
 9508SOL     OW29943   6.038   6.138   8.008 -0.1876 -0.5282  0.1329
 9508SOL    HW129944   6.028   6.074   7.937 -1.2145 -0.7520  0.4780
 9508SOL    HW229945   6.122   6.180   7.989  0.0700 -1.3381 -0.6103
 9509SOL     OW29946   5.127   1.154   6.859  0.7048 -0.0208 -1.1176
 9509SOL    HW129947   5.033   1.156   6.877  0.8251  0.0291 -0.4378
 9509SOL    HW229948   5.146   1.238   6.817  0.6874  0.6272  0.1077
 9510SOL     OW29949   4.594   2.454   2.951 -0.8291 -0.3288  0.2741
 9510SOL    HW129950   4.611   2.532   2.899 -1.5591  0.7437  1.5657
 9510SOL    HW229951   4.642   2.469   3.033 -0.3982 -1.5761  0.2793
 9511SOL     OW29952   2.614   3.245   3.149  0.2551 -0.0091 -0.0479
 9511SOL    HW129953   2.556   3.169   3.149 -1.0490  0.9377  0.2116
 9511SOL    HW229954   2.596   3.290   3.232 -0.2585  1.4700 -0.9131
 9512SOL     OW29955   5.239   7.722   1.335  0.5366  0.7529 -0.0422
 9512SOL    HW129956   5.157   7.672   1.341  1.1700 -0.1947  1.2035
 9512SOL    HW229957   5.214   7.812   1.351 -0.1876  0.3829  0.9964
 9513SOL     OW29958   4.376   1.619   7.876  0.7019 -0.3788  0.2338
 9513SOL    HW129959   4.330   1.535   7.883 -0.2850 -0.0844 -2.0374
 9513SOL    HW229960   4.336   1.673   7.945  0.0235 -1.1863  0.4997
 9514SOL     OW29961   5.955   4.184   2.372  0.4519  0.5617  0.4516
 9514SOL    HW129962   5.951   4.116   2.304 -0.5637 -0.2767  1.3111
 9514SOL    HW229963   5.960   4.266   2.323 -1.9315  0.0983 -0.7233
 9515SOL     OW29964   1.502   6.944   4.129 -0.2838 -0.3374 -0.4263
 9515SOL    HW129965   1.511   6.895   4.047 -1.9280 -1.7226  0.1872
 9515SOL    HW229966   1.592   6.972   4.149  0.4273 -1.5358 -1.7324
 9516SOL     OW29967   2.478   6.320   6.954 -0.2324  0.3358  0.4282
 9516SOL    HW129968   2.555   6.276   6.989  1.2253  2.4906  0.1102
 9516SOL    HW229969   2.512   6.399   6.913 -2.7634  2.2164  1.6701
 9517SOL     OW29970   7.382   5.113   2.318  0.1995  0.2984 -0.2993
 9517SOL    HW129971   7.362   5.035   2.370 -0.3757  0.8981  0.4090
 9517SOL    HW229972   7.315   5.114   2.250  0.1675  0.2178 -0.2701
 9518SOL     OW29973   0.114   7.812   4.544 -0.8024 -0.2963  0.3123
 9518SOL    HW129974   0.106   7.785   4.452  0.5983 -1.0237  0.3690
 9518SOL    HW229975   0.073   7.899   4.547  0.9633  0.7075 -1.5124
 9519SOL     OW29976   5.634   6.672   7.160 -0.3650  0.5817 -0.0329
 9519SOL    HW129977   5.585   6.701   7.083 -0.8464  0.5881  0.2668
 9519SOL    HW229978   5.566   6.657   7.226 -0.1585 -1.4469 -0.2386
 9520SOL     OW29979   6.427   1.684   3.004  0.2919 -0.1694 -0.4570
 9520SOL    HW129980   6.389   1.610   3.053  2.0107 -0.8407 -0.0463
 9520SOL    HW229981   6.522   1.670   3.011  0.6627  2.0229 -0.4771
 9521SOL     OW29982   7.177   2.784   5.298 -1.0986  0.2110 -0.8741
 9521SOL    HW129983   7.155   2.790   5.391 -2.7527  0.5561 -1.2681
 9521SOL    HW229984   7.137   2.703   5.268  0.8994 -0.8242 -0.9492
 9522SOL     OW29985   7.672   6.264   4.732  0.4467 -0.0556  0.5010
 9522SOL    HW129986   7.726   6.307   4.799  1.4379 -0.1816 -0.2047
 9522SOL    HW229987   7.687   6.315   4.653 -0.1367 -0.3641  0.1843
 9523SOL     OW29988   1.050   6.791   3.732 -0.3450  0.2424  0.7413
 9523SOL    HW129989   1.010   6.705   3.749  0.5455  0.0095  1.7546
 9523SOL    HW229990   0.980   6.842   3.692 -0.7967 -1.0655 -0.2357
 9524SOL     OW29991   7.588   0.192   5.164 -0.3725  0.4552 -0.0799
 9524SOL    HW129992   7.546   0.249   5.228  0.7307  0.1250  0.9867
 9524SOL    HW229993   7.680   0.188   5.192 -0.1446 -0.7636 -0.9096
 9525SOL     OW29994   1.944   1.788   1.217  0.0039 -0.5195 -0.0417
 9525SOL    HW129995   2.007   1.732   1.173  2.4962  0.6014  1.8621
 9525SOL    HW229996   1.871   1.730   1.237  0.8720 -2.1612 -1.3118
 9526SOL     OW29997   3.171   6.817   6.142 -0.6549 -0.5934 -0.2247
 9526SOL    HW129998   3.213   6.783   6.063  0.0715 -1.6325  0.5870
 9526SOL    HW229999   3.091   6.766   6.151 -1.9017  1.0274 -1.4759
 9527SOL     OW30000   4.521   5.781   1.041 -0.4164  0.1588  0.1444
 9527SOL    HW130001   4.566   5.750   1.119 -0.4287 -0.0993  0.0513
 9527SOL    HW230002   4.588   5.826   0.990 -0.1064 -0.7972 -0.3052
 9528SOL     OW30003   2.113   3.588   7.480  0.4045  0.4916 -0.0981
 9528SOL    HW130004   2.176   3.599   7.552  0.5954 -0.4243 -0.1045
 9528SOL    HW230005   2.028   3.597   7.523  0.4478 -1.9933  0.6875
 9529SOL     OW30006   6.708   5.379   1.018  0.4141  0.4472 -0.1780
 9529SOL    HW130007   6.744   5.315   1.080  1.2354  0.7656 -0.3020
 9529SOL    HW230008   6.762   5.367   0.940 -0.3565  0.3227 -0.6990
 9530SOL     OW30009   7.896   1.741   1.700 -0.0276  0.1455  0.2588
 9530SOL    HW130010   7.923   1.651   1.721 -1.2152 -0.0280  1.1495
 9530SOL    HW230011   7.845   1.732   1.619 -0.2592 -0.0015  0.4205
 9531SOL     OW30012   0.022   2.650   1.548  0.0507  0.1690  0.0324
 9531SOL    HW130013   0.090   2.702   1.591  0.5231 -0.5754  0.2066
 9531SOL    HW230014  -0.059   2.698   1.564  0.0139 -0.6093  2.7694
 9532SOL     OW30015   7.261   1.604   3.151  0.4417 -0.1999  0.1387
 9532SOL    HW130016   7.167   1.622   3.156  0.3001 -1.1581  3.1819
 9532SOL    HW230017   7.302   1.690   3.145 -0.5946  0.2737 -0.3671
 9533SOL     OW30018   7.986   1.363   7.300 -0.1293  0.3395  0.5990
 9533SOL    HW130019   8.029   1.355   7.215  0.8068  1.0443  0.9970
 9533SOL    HW230020   7.940   1.280   7.311  1.4529 -0.6108  0.3419
 9534SOL     OW30021   4.990   6.382   6.298 -0.4059 -0.1983 -0.4521
 9534SOL    HW130022   5.016   6.365   6.207 -0.0453  0.9317 -0.5717
 9534SOL    HW230023   5.046   6.455   6.326 -0.0042 -0.9970  0.9202
 9535SOL     OW30024   3.599   6.721   6.686 -0.3686  0.4361 -0.4449
 9535SOL    HW130025   3.596   6.795   6.624  0.1461  0.9009  0.0718
 9535SOL    HW230026   3.636   6.649   6.635 -1.5418  0.3179 -1.1621
 9536SOL     OW30027   4.305   4.123   0.767  0.0519 -0.0229  0.4339
 9536SOL    HW130028   4.296   4.162   0.853  0.9055 -0.7639  0.8800
 9536SOL    HW230029   4.263   4.037   0.775  1.7673 -0.8927  0.7106
 9537SOL     OW30030   3.498   5.004   6.048  0.2772 -0.2831  0.0867
 9537SOL    HW130031   3.586   5.040   6.056  1.0392 -1.9302 -0.5283
 9537SOL    HW230032   3.491   4.978   5.956 -1.4406  1.2197 -0.2713
 9538SOL     OW30033   1.410   7.334   4.246  0.5268  0.1026 -0.2381
 9538SOL    HW130034   1.354   7.346   4.322  0.1764 -1.5094 -0.1898
 9538SOL    HW230035   1.353   7.290   4.182  1.2053  0.1791 -0.9031
 9539SOL     OW30036   1.049   0.338   3.046 -0.1129  0.4024  0.6252
 9539SOL    HW130037   1.132   0.313   3.087  0.2170  0.1486 -0.1679
 9539SOL    HW230038   1.028   0.423   3.084  2.5013  2.3750 -1.8829
 9540SOL     OW30039   4.416   1.116   4.776 -0.4397  0.0487  0.0661
 9540SOL    HW130040   4.488   1.173   4.747 -0.8082  0.1224 -0.7448
 9540SOL    HW230041   4.349   1.175   4.807  0.2072 -0.0502  1.7555
 9541SOL     OW30042   0.723   0.929   6.071 -0.3816 -0.2760  0.1698
 9541SOL    HW130043   0.654   0.862   6.067  0.0096 -0.6283 -2.4413
 9541SOL    HW230044   0.683   1.002   6.118 -1.0853 -1.9941  2.4114
 9542SOL     OW30045   4.181   6.227   3.939 -0.5444  0.0899  0.4847
 9542SOL    HW130046   4.202   6.206   4.030  0.2809  0.5722  0.4142
 9542SOL    HW230047   4.247   6.291   3.913 -0.3401 -0.5553 -0.6659
 9543SOL     OW30048   3.156   6.982   4.501 -0.1701 -0.5273  0.2237
 9543SOL    HW130049   3.139   7.076   4.510 -0.2882 -0.3763 -1.3558
 9543SOL    HW230050   3.108   6.957   4.422  1.5248 -1.4836 -0.5449
 9544SOL     OW30051   0.904   1.666   0.051  0.0553 -0.3341  0.0139
 9544SOL    HW130052   0.894   1.616  -0.030 -0.6447  2.5284 -1.8399
 9544SOL    HW230053   0.816   1.701   0.068  0.3635 -0.2678  1.6113
 9545SOL     OW30054   3.164   1.803   6.125  0.0808  0.2053  0.3327
 9545SOL    HW130055   3.107   1.829   6.053  0.9443 -0.5645 -0.6592
 9545SOL    HW230056   3.207   1.723   6.095  0.7334  0.0649  1.5573
 9546SOL     OW30057   7.254   7.529   3.760  0.3543 -0.1794 -0.6312
 9546SOL    HW130058   7.199   7.546   3.684  0.0499  0.1054 -0.3524
 9546SOL    HW230059   7.222   7.590   3.827 -1.2225 -2.2693  0.6389
 9547SOL     OW30060   5.821   6.658   1.560  0.0518  1.2469 -0.3436
 9547SOL    HW130061   5.885   6.607   1.511 -0.1640  0.9953 -0.3674
 9547SOL    HW230062   5.833   6.747   1.529 -1.2199  0.8552 -2.1299
 9548SOL     OW30063   5.449   5.369   2.473 -0.3024 -0.1903 -0.1191
 9548SOL    HW130064   5.523   5.375   2.535 -0.3402 -2.2390  0.1871
 9548SOL    HW230065   5.382   5.425   2.511 -0.3307 -1.4127  1.7576
 9549SOL     OW30066   4.267   7.830   5.616  0.1996  0.0976 -0.1690
 9549SOL    HW130067   4.185   7.808   5.661  1.6923 -0.7504  2.3396
 9549SOL    HW230068   4.271   7.768   5.543 -1.8087  0.8069 -0.9665
 9550SOL     OW30069   4.157   7.726   7.884  0.0490 -0.1164 -0.4125
 9550SOL    HW130070   4.220   7.663   7.919 -0.3118 -0.5695 -0.5613
 9550SOL    HW230071   4.183   7.739   7.793 -0.8680 -1.3669 -0.8853
 9551SOL     OW30072   1.520   0.926   3.012 -0.2308 -0.0700 -0.6201
 9551SOL    HW130073   1.532   1.021   3.007 -2.1932  0.2427 -0.2384
 9551SOL    HW230074   1.427   0.914   3.035  0.3145 -2.0463  0.8896
 9552SOL     OW30075   7.372   5.904   2.112  0.3289  0.6833 -0.0991
 9552SOL    HW130076   7.391   5.852   2.191 -0.2673  2.2067  1.0987
 9552SOL    HW230077   7.317   5.976   2.144  1.4249  2.2578 -1.6210
 9553SOL     OW30078   5.401   4.158   5.848 -0.1878 -0.6533  0.0422
 9553SOL    HW130079   5.377   4.251   5.846  0.8328 -0.2843  2.0575
 9553SOL    HW230080   5.481   4.155   5.900  0.4993 -2.5539 -1.0178
 9554SOL     OW30081   6.279   7.683   2.271 -0.2277 -0.0307 -0.2432
 9554SOL    HW130082   6.357   7.643   2.309 -1.0340  0.5918  2.2028
 9554SOL    HW230083   6.313   7.753   2.215  0.9977 -0.9420 -0.6840
 9555SOL     OW30084   3.028   6.803   5.785  0.6987  0.1648  0.0066
 9555SOL    HW130085   3.019   6.759   5.870  2.0851 -2.2730 -0.9937
 9555SOL    HW230086   3.028   6.896   5.806  1.4708 -0.3583  2.7421
 9556SOL     OW30087   1.962   8.004   4.719 -0.2346 -0.4195  0.5043
 9556SOL    HW130088   1.916   8.088   4.719 -1.0003 -0.7944  2.3715
 9556SOL    HW230089   1.897   7.941   4.751  0.5195 -1.6337 -0.2471
 9557SOL     OW30090   3.753   2.277   4.274 -0.0806  0.1109  0.4120
 9557SOL    HW130091   3.687   2.340   4.246  0.3821  0.7279  0.6843
 9557SOL    HW230092   3.713   2.191   4.257 -0.4672  0.4696 -0.5374
 9558SOL     OW30093   6.079   5.907   2.542  0.0299 -0.4584 -0.4975
 9558SOL    HW130094   6.099   5.968   2.613  0.7731 -0.8055 -0.4032
 9558SOL    HW230095   6.133   5.937   2.469 -0.0973 -0.6092 -0.6548
 9559SOL     OW30096   7.760   4.139   6.555  0.0741  0.0392 -0.3115
 9559SOL    HW130097   7.762   4.104   6.466  4.9373  1.3084 -0.9455
 9559SOL    HW230098   7.758   4.234   6.543  2.2271  0.2714  0.8035
 9560SOL     OW30099   0.801   4.911   3.991  1.0725 -0.1413 -0.2742
 9560SOL    HW130100   0.752   4.841   4.035 -1.7315  1.8504  0.0242
 9560SOL    HW230101   0.848   4.955   4.062  1.3116 -0.5608 -0.1708
 9561SOL     OW30102   1.868   0.297   6.989  0.3827  0.2494  0.2479
 9561SOL    HW130103   1.916   0.228   6.944  0.3344 -1.3254  2.4493
 9561SOL    HW230104   1.776   0.278   6.972  0.3629 -0.3690  1.0009
 9562SOL     OW30105   1.095   1.365   7.864 -0.0363  0.3005  0.1558
 9562SOL    HW130106   1.153   1.424   7.912 -1.3726  1.6316  0.1981
 9562SOL    HW230107   1.146   1.284   7.855  2.0090  1.5420 -0.2161
 9563SOL     OW30108   4.255   6.864   5.151  0.3491  0.5742  0.0674
 9563SOL    HW130109   4.337   6.912   5.138  0.8690  0.3207  1.9870
 9563SOL    HW230110   4.188   6.933   5.158  0.8196  0.9528  1.0449
 9564SOL     OW30111   3.658   6.989   5.441 -0.0916 -0.1173  0.1063
 9564SOL    HW130112   3.728   7.045   5.406 -0.6639  1.1950  0.9769
 9564SOL    HW230113   3.694   6.900   5.436  1.0977  0.3809 -0.7307
 9565SOL     OW30114   1.324   5.359   5.725 -0.6958 -0.0709  0.1672
 9565SOL    HW130115   1.304   5.433   5.667 -1.9008  0.4859  1.2328
 9565SOL    HW230116   1.325   5.283   5.667 -0.1871  0.6758 -0.8322
 9566SOL     OW30117   4.151   6.720   5.528 -0.3847 -0.1084  0.0007
 9566SOL    HW130118   4.155   6.644   5.470  2.3968 -0.4315  0.4716
 9566SOL    HW230119   4.122   6.685   5.612  1.4223 -0.8438  0.3695
 9567SOL     OW30120   0.997   0.605   3.188 -0.3488  0.3385 -0.0378
 9567SOL    HW130121   0.993   0.700   3.201 -1.0558  0.2911  0.1386
 9567SOL    HW230122   1.052   0.573   3.259  0.4902  0.6883 -0.5151
 9568SOL     OW30123   7.201   1.879   0.410 -0.3625 -0.3668 -0.0877
 9568SOL    HW130124   7.147   1.830   0.472 -1.0522  1.5539  0.9076
 9568SOL    HW230125   7.209   1.966   0.449  0.2110  0.5490 -2.1204
 9569SOL     OW30126   0.612   1.876   5.741 -1.1281  0.0462 -0.5265
 9569SOL    HW130127   0.664   1.946   5.781 -1.3242  0.1937 -0.5287
 9569SOL    HW230128   0.567   1.835   5.815  0.3148 -1.2094 -0.2905
 9570SOL     OW30129   6.015   2.204   4.799  0.4827  0.2857 -0.6123
 9570SOL    HW130130   5.976   2.272   4.743 -0.1459  1.3628  1.0655
 9570SOL    HW230131   6.109   2.215   4.787  0.5071  2.7691  0.9829
 9571SOL     OW30132   4.877   7.473   0.121 -0.6745 -0.1127 -0.0142
 9571SOL    HW130133   4.958   7.428   0.097 -0.5562 -1.3221  2.4021
 9571SOL    HW230134   4.856   7.527   0.044  1.9759 -0.3515 -0.9960
 9572SOL     OW30135   5.753   3.676   5.022  0.3096  0.0621 -0.5807
 9572SOL    HW130136   5.687   3.745   5.021  0.2788  0.0358 -0.4864
 9572SOL    HW230137   5.715   3.606   4.968  0.7601  0.4890 -1.4689
 9573SOL     OW30138   3.818   6.970   3.976  0.3405  0.6402  0.7556
 9573SOL    HW130139   3.765   6.904   3.932  1.0841  0.5927 -0.1021
 9573SOL    HW230140   3.788   6.969   4.067 -1.0081  0.5089  0.3302
 9574SOL     OW30141   3.658   3.866   2.370 -0.0369  0.8003 -0.3208
 9574SOL    HW130142   3.584   3.861   2.310 -0.5885  0.0648  0.4090
 9574SOL    HW230143   3.706   3.944   2.341 -0.4086  0.5899 -1.5663
 9575SOL     OW30144   0.850   0.336   3.946  0.5566 -0.3828  0.5141
 9575SOL    HW130145   0.902   0.331   3.866  1.2795  3.6287  0.5473
 9575SOL    HW230146   0.760   0.324   3.916  0.9409 -0.5605 -0.6253
 9576SOL     OW30147   6.980   6.886   6.838 -0.0484 -0.1665  0.9703
 9576SOL    HW130148   6.947   6.961   6.889 -0.5566 -0.4028  0.9952
 9576SOL    HW230149   6.983   6.814   6.900  0.0424 -0.2705  0.8450
 9577SOL     OW30150   7.512   2.634   0.187 -0.0921  0.3174  0.1789
 9577SOL    HW130151   7.488   2.543   0.204 -0.7052  0.4958  0.2857
 9577SOL    HW230152   7.581   2.628   0.120 -0.0259 -0.2291  0.2917
 9578SOL     OW30153   1.117   1.967   6.733  0.4312 -0.0997 -0.0808
 9578SOL    HW130154   1.044   1.943   6.790  0.8452  0.4595  0.6954
 9578SOL    HW230155   1.090   2.048   6.691  0.2472 -0.3569 -0.4628
 9579SOL     OW30156   5.501   3.710   1.134  0.0092 -0.1385 -0.4207
 9579SOL    HW130157   5.414   3.686   1.105  0.0441 -0.9861  0.1547
 9579SOL    HW230158   5.512   3.801   1.104 -1.3112  0.2024  0.0647
 9580SOL     OW30159   4.866   0.836   4.916 -0.5841 -0.4286 -0.0453
 9580SOL    HW130160   4.828   0.755   4.949  0.2373 -0.4932  0.7542
 9580SOL    HW230161   4.810   0.905   4.951 -0.3020 -0.5563  0.6694
 9581SOL     OW30162   4.789   1.455   5.100  0.6263  0.3990  0.0655
 9581SOL    HW130163   4.734   1.533   5.089 -1.8184 -1.1779  0.2294
 9581SOL    HW230164   4.870   1.488   5.140 -0.2375  2.8585 -0.0488
 9582SOL     OW30165   2.240   1.114   3.688 -0.4735  0.0505  0.0461
 9582SOL    HW130166   2.221   1.198   3.647  2.2629  1.3664  1.2747
 9582SOL    HW230167   2.245   1.133   3.781  1.4660 -1.1804  0.2405
 9583SOL     OW30168   5.447   6.183   3.794  0.3880 -0.0810  0.0338
 9583SOL    HW130169   5.523   6.212   3.845 -0.2229  1.0730  0.3340
 9583SOL    HW230170   5.468   6.093   3.769  1.4343 -0.1117  0.9136
 9584SOL     OW30171   7.096   4.731   3.949  0.1375 -0.3475 -0.3009
 9584SOL    HW130172   7.155   4.707   4.021  0.0287 -3.6933 -1.1761
 9584SOL    HW230173   7.011   4.696   3.975  0.1444 -1.8411 -2.0665
 9585SOL     OW30174   2.026   2.390   7.192  0.2300  0.1741  0.0662
 9585SOL    HW130175   1.947   2.342   7.170  0.5225 -1.3366  2.0236
 9585SOL    HW230176   2.085   2.376   7.118 -0.7787  0.0999 -0.7430
 9586SOL     OW30177   6.995   1.793   2.804  0.4769 -0.9101  0.1090
 9586SOL    HW130178   7.013   1.706   2.839  0.6491 -0.3239  1.5466
 9586SOL    HW230179   7.039   1.795   2.719 -0.9246 -2.7889 -0.7292
 9587SOL     OW30180   7.650   6.069   3.567  0.1477 -0.2388 -0.0076
 9587SOL    HW130181   7.729   6.043   3.520  3.0130  0.8067  3.6549
 9587SOL    HW230182   7.621   5.990   3.612 -1.3734 -0.7643 -1.8083
 9588SOL     OW30183   1.868   2.321   1.766 -0.8467  0.1717 -0.0975
 9588SOL    HW130184   1.932   2.314   1.695  0.3308  0.4019  0.9083
 9588SOL    HW230185   1.892   2.252   1.827 -0.0511  1.7194  1.4256
 9589SOL     OW30186   3.705   5.300   0.897 -0.1902  0.9706 -0.1082
 9589SOL    HW130187   3.729   5.295   0.990 -1.3544  0.2167  0.1713
 9589SOL    HW230188   3.656   5.382   0.889 -2.2646 -0.1263  0.5202
 9590SOL     OW30189   0.947   2.872   4.740 -0.0367 -0.8814  0.1485
 9590SOL    HW130190   0.940   2.840   4.830  1.8258 -1.5685  0.0746
 9590SOL    HW230191   0.931   2.794   4.686  0.9882 -0.9420 -0.0775
 9591SOL     OW30192   4.046   0.154   7.412  0.2167 -0.2423 -0.0791
 9591SOL    HW130193   4.123   0.155   7.355 -0.1741 -0.2227 -0.6153
 9591SOL    HW230194   3.973   0.133   7.353 -0.2654  0.2615  0.3267
 9592SOL     OW30195   3.366   0.526   1.180 -0.3181  0.1523  0.0944
 9592SOL    HW130196   3.314   0.584   1.124 -2.0312 -1.2236  0.1858
 9592SOL    HW230197   3.302   0.481   1.235  0.8295 -2.3631 -0.4789
 9593SOL     OW30198   2.925   6.381   0.030 -0.4190  0.0574  0.3765
 9593SOL    HW130199   2.887   6.434  -0.040 -0.8868  1.9598  1.9674
 9593SOL    HW230200   2.870   6.303   0.032 -1.8175  0.9729  0.0285
 9594SOL     OW30201   3.932   2.540   0.876 -0.6269 -0.0113 -0.1083
 9594SOL    HW130202   3.965   2.451   0.863 -0.0379  0.1894 -0.0070
 9594SOL    HW230203   3.925   2.550   0.970  0.1057  0.3309 -0.0843
 9595SOL     OW30204   3.713   4.793   5.350 -0.0250  0.1368  0.1697
 9595SOL    HW130205   3.698   4.886   5.335  0.3142  0.1952  0.1957
 9595SOL    HW230206   3.775   4.790   5.422 -0.5288 -0.1210  0.5995
 9596SOL     OW30207   4.758   7.606   5.972  0.4394  0.0461  0.5840
 9596SOL    HW130208   4.737   7.591   5.880 -1.6015 -0.3661  1.0637
 9596SOL    HW230209   4.847   7.642   5.971  0.0358  1.1588 -1.6165
 9597SOL     OW30210   1.411   1.721   2.698  0.2796 -0.0227 -0.3282
 9597SOL    HW130211   1.464   1.701   2.775 -1.1220 -0.8777  0.4639
 9597SOL    HW230212   1.454   1.674   2.626 -0.2249 -2.0301  0.5991
 9598SOL     OW30213   3.155   4.449   2.266 -0.8048  0.5619 -0.1241
 9598SOL    HW130214   3.078   4.405   2.231 -1.0878  1.7203 -0.9936
 9598SOL    HW230215   3.193   4.495   2.191  0.3442  0.5689  0.4408
 9599SOL     OW30216   7.199   5.118   0.525  0.1301 -0.3807 -0.3616
 9599SOL    HW130217   7.125   5.075   0.567 -1.3999  1.7805 -0.6783
 9599SOL    HW230218   7.185   5.107   0.432 -1.0797  1.8819 -0.5126
 9600SOL     OW30219   7.542   0.698   1.057  0.6571  0.4946 -0.1583
 9600SOL    HW130220   7.541   0.792   1.077  0.1168  0.5691 -0.5395
 9600SOL    HW230221   7.635   0.678   1.043  0.6205  1.3724 -1.9575
 9601SOL     OW30222   4.697   0.438   0.583  0.1162  0.1230 -0.1908
 9601SOL    HW130223   4.616   0.388   0.594  0.4450 -0.1661  1.0323
 9601SOL    HW230224   4.693   0.469   0.492 -0.3781 -1.6269 -0.8184
 9602SOL     OW30225   4.138   7.084   6.921 -0.1099 -0.5634 -0.0313
 9602SOL    HW130226   4.136   7.064   6.827 -0.5382 -0.2885 -0.0868
 9602SOL    HW230227   4.088   7.165   6.929 -1.3024 -1.3170  0.5969
 9603SOL     OW30228   7.467   1.046   3.729 -0.2924 -0.0347 -0.2035
 9603SOL    HW130229   7.543   1.087   3.687  1.9146 -2.5037  1.1063
 9603SOL    HW230230   7.417   1.119   3.765  0.5813  1.7842 -2.4023
 9604SOL     OW30231   6.314   2.582   0.771 -0.2805  0.5449  0.5761
 9604SOL    HW130232   6.402   2.608   0.797 -0.3899  0.1854  1.3165
 9604SOL    HW230233   6.258   2.656   0.796 -0.3983  0.1661  1.4734
 9605SOL     OW30234   1.085   2.500   4.679  0.2293 -0.1343  0.0511
 9605SOL    HW130235   1.119   2.416   4.648  0.5050  0.1820 -0.5069
 9605SOL    HW230236   1.116   2.506   4.769  0.3368 -0.5581  0.0461
 9606SOL     OW30237   5.553   5.952   3.668 -0.3754 -0.0442  0.6085
 9606SOL    HW130238   5.582   5.925   3.755  0.6219 -1.1871 -0.0556
 9606SOL    HW230239   5.623   5.926   3.609 -0.4161  1.9355 -0.4082
 9607SOL     OW30240   1.562   4.114   4.020 -0.7055  0.3785  0.1821
 9607SOL    HW130241   1.578   4.146   4.109 -0.9210 -1.7332  1.0323
 9607SOL    HW230242   1.649   4.089   3.989 -0.7499  0.2617  0.1526
 9608SOL     OW30243   0.502   4.528   5.798 -0.4388 -0.1852 -0.4133
 9608SOL    HW130244   0.567   4.483   5.851 -0.1487  2.4111  1.6789
 9608SOL    HW230245   0.418   4.501   5.834 -0.3264 -0.1370 -0.1141
 9609SOL     OW30246   7.659   6.396   7.768 -0.0512 -0.0266 -0.4785
 9609SOL    HW130247   7.636   6.402   7.676  0.2672 -0.6423 -0.6068
 9609SOL    HW230248   7.719   6.321   7.773  0.1774  0.1892  0.1784
 9610SOL     OW30249   4.169   6.328   1.052  0.4783  0.1374 -0.0898
 9610SOL    HW130250   4.090   6.379   1.036 -0.1342 -0.0880  1.9476
 9610SOL    HW230251   4.154   6.245   1.007  0.2245  0.6394 -0.9640
 9611SOL     OW30252   7.097   4.290   0.211  0.4092  0.0861 -0.1329
 9611SOL    HW130253   7.183   4.250   0.223  0.4630  0.1241 -0.3863
 9611SOL    HW230254   7.099   4.367   0.267  0.1997 -0.4166  0.5821
 9612SOL     OW30255   3.784   4.843   2.240 -0.6475 -0.8579  0.1702
 9612SOL    HW130256   3.703   4.851   2.289 -1.0775 -2.9646 -0.1344
 9612SOL    HW230257   3.763   4.878   2.153 -0.9134 -0.4752  0.3832
 9613SOL     OW30258   1.372   2.706   6.478 -0.4669  0.0617 -0.0419
 9613SOL    HW130259   1.461   2.688   6.448 -0.6814  0.9949 -1.3205
 9613SOL    HW230260   1.384   2.741   6.566  0.4745  0.5843 -0.3588
 9614SOL     OW30261   5.997   2.275   7.715  0.3522 -0.4384 -0.0998
 9614SOL    HW130262   6.056   2.200   7.716  0.6180 -0.2285  1.2693
 9614SOL    HW230263   6.015   2.318   7.631  2.0481 -0.4727  0.2110
 9615SOL     OW30264   5.276   6.177   5.914 -0.5655  0.1360  0.1851
 9615SOL    HW130265   5.208   6.233   5.951 -0.0195  0.0688  1.3155
 9615SOL    HW230266   5.333   6.238   5.866 -0.5190  0.4294  0.6002
 9616SOL     OW30267   0.972   7.415   0.613  0.1020 -0.6505 -0.3865
 9616SOL    HW130268   0.977   7.330   0.570 -1.1751 -1.3916  0.8306
 9616SOL    HW230269   0.887   7.414   0.657  0.6452  0.7154  0.7680
 9617SOL     OW30270   2.653   7.103   7.560  0.5897  0.1586 -0.0640
 9617SOL    HW130271   2.602   7.044   7.615  1.9062 -1.3775 -0.3893
 9617SOL    HW230272   2.590   7.166   7.527 -0.4019  0.6467  2.5124
 9618SOL     OW30273   5.429   1.974   7.144  0.2454 -0.0257 -0.2346
 9618SOL    HW130274   5.507   2.030   7.145  0.2502  0.1701 -3.0686
 9618SOL    HW230275   5.356   2.035   7.156  0.3610  0.2906 -1.1197
 9619SOL     OW30276   2.960   3.853   0.169 -0.5326 -0.6060 -0.0990
 9619SOL    HW130277   3.027   3.795   0.131  1.8645  0.9964  1.3966
 9619SOL    HW230278   2.889   3.853   0.105  1.0857 -2.0385 -2.0226
 9620SOL     OW30279   2.159   5.486   6.681 -0.3246 -0.3065  0.2250
 9620SOL    HW130280   2.070   5.488   6.716 -0.1246  0.5008  0.7026
 9620SOL    HW230281   2.149   5.452   6.592 -1.3567  1.6317 -0.4412
 9621SOL     OW30282   4.414   8.037   4.233 -0.1300  0.6921 -0.0038
 9621SOL    HW130283   4.389   7.960   4.182 -0.7541  0.2900  0.8977
 9621SOL    HW230284   4.347   8.103   4.212 -0.9252  0.2223  0.9853
 9622SOL     OW30285   7.275   5.366   2.084 -0.0382 -0.0753 -0.3089
 9622SOL    HW130286   7.235   5.280   2.096  0.5602 -0.4191 -0.7433
 9622SOL    HW230287   7.201   5.426   2.073 -0.6290  0.0108  3.0972
 9623SOL     OW30288   7.141   5.318   1.378  0.4931  0.2011 -0.0570
 9623SOL    HW130289   7.154   5.290   1.469  2.8896 -1.3000 -0.7795
 9623SOL    HW230290   7.224   5.359   1.353 -0.8324  2.5295 -1.0009
 9624SOL     OW30291   4.618   7.970   3.485 -0.3163  0.0136 -0.3764
 9624SOL    HW130292   4.580   7.972   3.397  2.0809  0.3677 -1.4893
 9624SOL    HW230293   4.691   7.908   3.477 -1.3959 -1.7131  2.0150
 9625SOL     OW30294   5.492   6.080   5.053  0.0877  0.4615  0.1451
 9625SOL    HW130295   5.422   6.059   5.116 -1.5632 -1.9515 -2.2754
 9625SOL    HW230296   5.533   5.996   5.034  1.8360  1.4297 -0.6061
 9626SOL     OW30297   0.871   0.370   2.358  0.1924 -0.2580  0.0462
 9626SOL    HW130298   0.799   0.348   2.299 -0.4517  0.6257  0.4711
 9626SOL    HW230299   0.947   0.325   2.322 -0.7739 -2.0797  0.1900
 9627SOL     OW30300   7.466   7.580   7.339  0.1052  0.3527 -0.1615
 9627SOL    HW130301   7.542   7.524   7.354  1.5420  2.0309 -0.7673
 9627SOL    HW230302   7.432   7.554   7.254  0.6341  0.2785 -0.3491
 9628SOL     OW30303   1.496   6.443   6.967  0.2971  0.2301  0.1617
 9628SOL    HW130304   1.556   6.495   7.019 -1.3844  1.1049  1.3237
 9628SOL    HW230305   1.500   6.355   7.006  0.8081  0.2825  0.2273
 9629SOL     OW30306   3.900   0.316   3.212  0.2504  0.4754  0.0007
 9629SOL    HW130307   3.825   0.364   3.179  0.3541  0.5855 -0.0778
 9629SOL    HW230308   3.869   0.226   3.224  0.8161 -0.1614 -2.6231
 9630SOL     OW30309   0.560   3.204   3.941  0.0882 -0.0223 -0.3284
 9630SOL    HW130310   0.511   3.241   4.014 -2.4951 -1.3297 -1.2610
 9630SOL    HW230311   0.613   3.134   3.980  0.4535  0.7296  0.5608
 9631SOL     OW30312   4.402   5.795   7.532  0.1010  0.0075 -0.0732
 9631SOL    HW130313   4.429   5.811   7.622  1.7375 -1.3161 -0.2857
 9631SOL    HW230314   4.404   5.881   7.491  0.0809  0.5176  0.9646
 9632SOL     OW30315   3.663   7.433   4.135 -0.1363  0.0773  0.5107
 9632SOL    HW130316   3.665   7.476   4.220  2.3002  1.8421 -0.3507
 9632SOL    HW230317   3.572   7.403   4.126 -0.3215 -0.8800  4.0050
 9633SOL     OW30318   4.947   6.925   3.861  0.1337  0.1945 -0.2002
 9633SOL    HW130319   5.005   7.001   3.850 -0.7413  0.7947 -0.7815
 9633SOL    HW230320   4.927   6.898   3.771 -0.9186  0.3370 -0.0215
 9634SOL     OW30321   7.785   4.513   3.238 -0.0838  0.3879 -0.0666
 9634SOL    HW130322   7.832   4.489   3.318 -1.1473  0.2317  0.5197
 9634SOL    HW230323   7.824   4.457   3.170 -1.1957 -1.6729  0.9028
 9635SOL     OW30324   4.066   4.583   4.087 -0.5104 -0.3715  0.2997
 9635SOL    HW130325   4.072   4.576   3.992 -1.3191  2.4362 -0.0363
 9635SOL    HW230326   3.980   4.548   4.108  0.2291 -2.3555  0.2328
 9636SOL     OW30327   6.350   3.796   0.118 -0.2857 -0.1263 -0.5534
 9636SOL    HW130328   6.321   3.828   0.203 -0.8724 -0.4999 -0.6014
 9636SOL    HW230329   6.316   3.860   0.055  0.5266  0.3853 -0.4751
 9637SOL     OW30330   2.216   0.478   1.339 -0.6200  0.2035 -0.1575
 9637SOL    HW130331   2.200   0.418   1.267 -1.8271 -0.8968  0.9602
 9637SOL    HW230332   2.265   0.550   1.301 -1.8255 -0.0037 -2.2082
 9638SOL     OW30333   0.931   4.374   3.895  0.3441 -0.2280  0.1567
 9638SOL    HW130334   0.962   4.464   3.907  2.1311 -0.7645 -0.1662
 9638SOL    HW230335   0.947   4.332   3.979  0.4148 -0.4985  0.0077
 9639SOL     OW30336   0.541   3.965   5.378 -0.1815  0.3403  0.4392
 9639SOL    HW130337   0.472   3.984   5.315 -1.0729  0.4267  1.3948
 9639SOL    HW230338   0.565   4.050   5.415  1.0008  0.4032 -0.4240
 9640SOL     OW30339   5.078   4.144   0.905 -0.2778  0.1302 -0.0246
 9640SOL    HW130340   5.163   4.182   0.929 -0.6935  0.3628  1.1470
 9640SOL    HW230341   5.044   4.202   0.837  0.5376 -0.0228 -0.5776
 9641SOL     OW30342   6.105   1.132   4.536  0.2115  0.4550  0.2390
 9641SOL    HW130343   6.042   1.060   4.532  0.8592 -0.0704 -0.9995
 9641SOL    HW230344   6.169   1.105   4.602 -1.8134  1.8456  2.9592
 9642SOL     OW30345   7.974   6.477   4.570 -0.6959  0.1682  0.1170
 9642SOL    HW130346   7.974   6.562   4.612  1.2358 -0.1665  0.8867
 9642SOL    HW230347   8.028   6.422   4.626 -0.0664 -0.9656 -1.5199
 9643SOL     OW30348   6.807   2.519   0.508 -0.5027  0.5253  0.0999
 9643SOL    HW130349   6.851   2.591   0.462 -0.0289  0.6247  0.6939
 9643SOL    HW230350   6.857   2.508   0.588 -1.7369  0.8419  0.9490
 9644SOL     OW30351   7.939   1.114   0.221  0.0324  0.2245 -0.1449
 9644SOL    HW130352   7.990   1.037   0.247 -0.7030 -0.7088 -1.3375
 9644SOL    HW230353   7.969   1.134   0.132  0.3127  1.4129  0.2045
 9645SOL     OW30354   3.964   7.893   0.313  0.2140  0.4406 -0.2030
 9645SOL    HW130355   4.041   7.898   0.370 -0.0728 -0.0365  0.2330
 9645SOL    HW230356   4.001   7.877   0.225  0.6650  1.4361 -0.2031
 9646SOL     OW30357   5.931   1.218   1.766 -0.2081 -0.2638  0.1509
 9646SOL    HW130358   5.843   1.180   1.769 -0.7834  0.7646 -2.0008
 9646SOL    HW230359   5.973   1.176   1.691  0.6558  0.2628  0.3260
 9647SOL     OW30360   4.832   0.068   3.578 -0.5046  0.1975  0.5166
 9647SOL    HW130361   4.807   0.144   3.631  0.1725 -0.9114  2.4956
 9647SOL    HW230362   4.749   0.031   3.548 -0.8851  0.9134  0.6730
 9648SOL     OW30363   7.211   4.879   5.175 -0.1176  0.7807  0.5823
 9648SOL    HW130364   7.166   4.937   5.237 -0.2994 -0.8897  2.1135
 9648SOL    HW230365   7.163   4.797   5.180  2.7519 -0.9955  2.0166
 9649SOL     OW30366   7.899   0.885   4.038  0.1383 -0.4913  1.0848
 9649SOL    HW130367   7.918   0.951   3.970  1.5098 -2.3222 -0.4422
 9649SOL    HW230368   7.976   0.888   4.095  1.2641 -2.1865 -0.2567
 9650SOL     OW30369   6.048   4.109   6.337 -0.6562  0.2761 -0.1236
 9650SOL    HW130370   5.958   4.137   6.358 -0.3413  1.1546  0.1097
 9650SOL    HW230371   6.078   4.063   6.415 -1.4028 -1.3123 -0.7429
 9651SOL     OW30372   0.565   7.924   7.158  0.1142 -0.1236  0.0403
 9651SOL    HW130373   0.586   7.902   7.068  0.0407  0.0564 -0.0220
 9651SOL    HW230374   0.574   7.842   7.206  1.3964  0.0276  0.0994
 9652SOL     OW30375   4.560   1.807   0.738 -0.1668 -0.1737  0.5130
 9652SOL    HW130376   4.638   1.843   0.695 -0.8095  0.1937 -0.3762
 9652SOL    HW230377   4.594   1.741   0.799  0.6886 -1.8775 -1.6926
 9653SOL     OW30378   1.332   2.284   4.577  0.5497  0.3831  0.0484
 9653SOL    HW130379   1.243   2.253   4.560  0.7671  0.0457 -0.5091
 9653SOL    HW230380   1.336   2.295   4.672 -0.9656  3.0668 -0.1062
 9654SOL     OW30381   7.751   6.804   6.538  0.3271 -0.2872 -0.0059
 9654SOL    HW130382   7.716   6.804   6.627  1.3634  1.1175  0.4509
 9654SOL    HW230383   7.675   6.816   6.482 -0.2369 -0.1842  0.7632
 9655SOL     OW30384   6.154   7.107   6.392 -0.0042  0.3838 -0.7724
 9655SOL    HW130385   6.091   7.037   6.409 -0.0759  0.8716  1.2682
 9655SOL    HW230386   6.109   7.187   6.419  0.9337  0.9255 -0.7778
 9656SOL     OW30387   1.310   3.146   7.417  0.2689  0.0638  0.4084
 9656SOL    HW130388   1.298   3.214   7.484 -0.0435  0.9520 -0.5334
 9656SOL    HW230389   1.239   3.084   7.434 -0.1024  0.5375  0.6050
 9657SOL     OW30390   6.278   7.590   3.195  0.5457  0.1069 -0.0619
 9657SOL    HW130391   6.312   7.616   3.110  0.8204 -1.7132 -0.5410
 9657SOL    HW230392   6.188   7.563   3.177 -0.2659  2.0880  0.6982
 9658SOL     OW30393   2.962   1.532   3.668  0.5007  0.5121 -0.4786
 9658SOL    HW130394   3.018   1.592   3.718 -1.1660 -0.1487  2.4404
 9658SOL    HW230395   2.991   1.445   3.695 -1.2749  0.1556  0.4176
 9659SOL     OW30396   3.960   5.099   5.680  0.1687  0.1848  0.1710
 9659SOL    HW130397   3.977   5.007   5.662  0.3857 -0.0715  1.5240
 9659SOL    HW230398   3.999   5.114   5.766 -0.1353  1.4605  0.1085
 9660SOL     OW30399   6.048   5.725   5.439 -0.0167  0.4523  0.0376
 9660SOL    HW130400   6.132   5.680   5.434 -0.1026  0.1528  0.9848
 9660SOL    HW230401   6.017   5.728   5.349  0.5127 -0.3991 -0.1882
 9661SOL     OW30402   1.467   3.643   6.964 -0.5913  0.2489  0.1572
 9661SOL    HW130403   1.418   3.575   6.918  0.3219 -0.9404  0.9127
 9661SOL    HW230404   1.525   3.681   6.898 -0.7116 -0.0827 -0.1365
 9662SOL     OW30405   4.125   0.816   5.139 -0.1448 -0.0587 -0.2696
 9662SOL    HW130406   4.089   0.745   5.086  0.2107 -0.7240  0.3593
 9662SOL    HW230407   4.050   0.873   5.157 -0.4603 -0.3360 -0.6852
 9663SOL     OW30408   5.603   5.391   0.548  0.9081  0.4935 -0.3456
 9663SOL    HW130409   5.661   5.434   0.485 -0.2607  0.9620 -1.1315
 9663SOL    HW230410   5.516   5.400   0.510  0.2811  0.0351  0.9407
 9664SOL     OW30411   0.316   5.232   4.612  0.7501 -0.0414  0.0261
 9664SOL    HW130412   0.403   5.272   4.602  0.4311  1.1702  1.6928
 9664SOL    HW230413   0.305   5.178   4.534  1.3137  2.9296 -2.2621
 9665SOL     OW30414   0.792   1.539   0.785  0.1905  0.3120  0.0831
 9665SOL    HW130415   0.819   1.494   0.865  1.5000  1.9709  0.6465
 9665SOL    HW230416   0.710   1.583   0.809 -1.0554 -1.5761 -0.4492
 9666SOL     OW30417   7.721   7.351   5.506  0.0243 -0.0405 -0.0894
 9666SOL    HW130418   7.789   7.402   5.461  0.0655  0.2817  0.3349
 9666SOL    HW230419   7.768   7.276   5.543 -0.3357 -1.5323 -2.4205
 9667SOL     OW30420   2.382   4.547   5.580 -0.0539  0.2666  0.9046
 9667SOL    HW130421   2.427   4.599   5.647  0.4894 -0.8611  1.4338
 9667SOL    HW230422   2.319   4.494   5.629  0.6992 -0.9440  0.5952
 9668SOL     OW30423   6.900   1.507   0.237 -0.0895 -0.2455  0.2534
 9668SOL    HW130424   6.977   1.452   0.224 -0.4040 -0.3442 -1.4305
 9668SOL    HW230425   6.911   1.544   0.324  1.0660 -1.5005  0.6687
 9669SOL     OW30426   4.991   5.611   8.018 -0.3327  0.6661  0.3281
 9669SOL    HW130427   5.047   5.689   8.016 -0.6912  0.9332 -1.6473
 9669SOL    HW230428   4.997   5.580   8.108  0.2913  2.6322  1.0320
 9670SOL     OW30429   1.284   4.002   5.194  0.8157  0.0412  0.0397
 9670SOL    HW130430   1.239   3.918   5.201  2.7083 -1.0868 -0.6330
 9670SOL    HW230431   1.256   4.038   5.110 -2.3329  1.6239  1.5702
 9671SOL     OW30432   1.203   1.964   7.840 -0.0982  0.0220 -0.1577
 9671SOL    HW130433   1.272   2.015   7.883 -1.8181  0.0578  2.8293
 9671SOL    HW230434   1.125   2.019   7.845 -1.5294 -1.9850  1.3139
 9672SOL     OW30435   0.246   6.422   4.535 -0.2542  0.1727  0.4426
 9672SOL    HW130436   0.185   6.366   4.582  1.0317  0.3949  2.5043
 9672SOL    HW230437   0.297   6.362   4.480  1.1918 -0.8209  2.7027
 9673SOL     OW30438   6.819   4.718   1.997 -0.5417  0.2483  0.2097
 9673SOL    HW130439   6.835   4.779   1.925  2.4806  0.9007  1.2789
 9673SOL    HW230440   6.792   4.774   2.070  1.0306  0.2455  0.8414
 9674SOL     OW30441   7.430   4.231   5.393 -0.2755  0.1420  0.1198
 9674SOL    HW130442   7.360   4.236   5.327 -0.2656 -0.3331  0.0707
 9674SOL    HW230443   7.451   4.323   5.412 -0.4666  0.2858 -0.3396
 9675SOL     OW30444   3.097   4.029   2.232  0.0567  0.5450  0.2114
 9675SOL    HW130445   3.058   4.050   2.147  0.1801 -0.6691 -0.1745
 9675SOL    HW230446   3.142   3.946   2.217  1.6755  1.2490  0.9944
 9676SOL     OW30447   1.599   6.377   4.135 -0.1280 -0.3361  0.0867
 9676SOL    HW130448   1.505   6.358   4.143 -0.7089  0.8282 -2.7777
 9676SOL    HW230449   1.603   6.454   4.078  2.5798 -0.3403  0.1499
 9677SOL     OW30450   4.882   2.100   5.256  0.0524  0.0279  0.1469
 9677SOL    HW130451   4.909   2.035   5.321  0.7563 -0.2762 -0.4280
 9677SOL    HW230452   4.808   2.059   5.211 -1.3838  0.8321  1.6808
 9678SOL     OW30453   2.420   5.239   4.616  0.0526  0.5639  0.4514
 9678SOL    HW130454   2.366   5.311   4.585 -1.3137 -1.4635 -2.3118
 9678SOL    HW230455   2.411   5.171   4.549  1.6246 -2.0206  2.6336
 9679SOL     OW30456   6.294   1.795   7.710  0.7504 -0.6046  0.1382
 9679SOL    HW130457   6.291   1.738   7.633 -0.4754 -0.2626 -0.0821
 9679SOL    HW230458   6.367   1.761   7.762  1.6110 -0.8446 -1.1607
 9680SOL     OW30459   6.527   7.679   5.450 -0.2322  0.5175 -0.0047
 9680SOL    HW130460   6.435   7.654   5.459  0.4348 -1.7366  1.5969
 9680SOL    HW230461   6.525   7.772   5.429 -2.8665  0.4894 -0.2354
 9681SOL     OW30462   3.307   3.681   7.312 -0.5330 -0.0354 -0.4061
 9681SOL    HW130463   3.295   3.758   7.257 -2.1843 -0.2154 -0.3284
 9681SOL    HW230464   3.225   3.633   7.305 -0.9083  0.0449  2.3626
 9682SOL     OW30465   6.390   2.033   2.970 -0.0714 -0.4116 -0.1132
 9682SOL    HW130466   6.348   2.113   2.939 -0.6825 -0.4990  0.4473
 9682SOL    HW230467   6.316   1.976   2.994  0.3681 -0.6867  0.6088
 9683SOL     OW30468   3.709   7.004   7.659  0.0954  0.4761  0.0191
 9683SOL    HW130469   3.779   7.032   7.600  1.1432 -1.3962  0.2738
 9683SOL    HW230470   3.654   6.946   7.607 -0.0274  0.2625  0.3770
 9684SOL     OW30471   7.683   1.669   6.647  0.4044  0.0770  0.0689
 9684SOL    HW130472   7.671   1.642   6.738  0.0067 -1.7551 -0.4827
 9684SOL    HW230473   7.597   1.656   6.607  1.1984 -1.6671 -1.1575
 9685SOL     OW30474   1.730   3.434   3.159  0.1159 -0.5478 -0.0960
 9685SOL    HW130475   1.676   3.483   3.098 -1.0310 -1.6923 -0.0681
 9685SOL    HW230476   1.722   3.343   3.130  1.2583 -0.8623  0.5106
 9686SOL     OW30477   7.583   1.099   7.364 -0.4187  0.1814  0.1235
 9686SOL    HW130478   7.542   1.175   7.405  1.3710  1.6596 -0.6755
 9686SOL    HW230479   7.514   1.061   7.309 -1.4120  1.0623  0.7327
 9687SOL     OW30480   4.702   5.935   3.716  0.0046  0.1818 -0.5293
 9687SOL    HW130481   4.792   5.917   3.741  0.3929  1.5909 -0.8627
 9687SOL    HW230482   4.689   6.028   3.735 -1.4771 -0.0592 -0.1900
 9688SOL     OW30483   0.000   3.708   2.196  0.3709  0.4572  0.0839
 9688SOL    HW130484  -0.018   3.753   2.279  0.5796 -0.5816  0.7082
 9688SOL    HW230485   0.091   3.733   2.175  1.5351 -1.8709  1.9202
 9689SOL     OW30486   0.209   1.972   0.623  0.0834 -0.5646 -0.1743
 9689SOL    HW130487   0.171   1.888   0.648  0.2704 -0.0821  1.8402
 9689SOL    HW230488   0.298   1.950   0.593 -0.8791 -1.4091 -2.7137
 9690SOL     OW30489   4.765   5.530   1.985  0.0648 -0.1988  0.4802
 9690SOL    HW130490   4.727   5.607   2.028  0.0423 -1.1959  2.3773
 9690SOL    HW230491   4.690   5.484   1.948 -0.2343 -0.5989  1.5596
 9691SOL     OW30492   7.619   3.655   6.679  0.4528 -0.9470 -0.1087
 9691SOL    HW130493   7.686   3.722   6.670  0.5784 -0.9777  0.5425
 9691SOL    HW230494   7.608   3.620   6.590  0.3226 -0.0202 -0.4726
 9692SOL     OW30495   5.507   0.357   7.827 -0.0543 -0.3014  0.8486
 9692SOL    HW130496   5.578   0.309   7.870 -1.5842 -2.3906  1.2424
 9692SOL    HW230497   5.443   0.371   7.897 -0.6334  0.2643  0.2137
 9693SOL     OW30498   1.683   3.605   2.263 -0.3595  0.0146  0.0823
 9693SOL    HW130499   1.700   3.678   2.322 -0.0799 -0.0474  0.0804
 9693SOL    HW230500   1.660   3.532   2.320 -0.5255  0.0733  0.0903
 9694SOL     OW30501   6.981   2.667   1.152 -0.3021  0.3047 -0.2474
 9694SOL    HW130502   7.063   2.621   1.131 -0.0004  0.8275 -0.2279
 9694SOL    HW230503   6.931   2.665   1.071 -0.1709  0.1819 -0.3260
 9695SOL     OW30504   2.584   2.158   0.472  0.5097  0.6435 -0.0320
 9695SOL    HW130505   2.503   2.159   0.421 -0.4122 -0.5480  1.3287
 9695SOL    HW230506   2.599   2.066   0.493  1.4999  0.9762  0.8263
 9696SOL     OW30507   5.553   4.073   0.987 -0.0034 -0.5289 -0.0315
 9696SOL    HW130508   5.467   4.077   0.946 -0.8747 -1.0902  1.6144
 9696SOL    HW230509   5.534   4.064   1.081  1.8592  0.2805  0.4675
 9697SOL     OW30510   4.351   4.042   6.821  0.7960  0.1415  0.5839
 9697SOL    HW130511   4.277   4.103   6.824  0.7356  0.0613  0.7923
 9697SOL    HW230512   4.403   4.070   6.746  1.7591  1.5922  1.7468
 9698SOL     OW30513   2.990   3.904   7.066  0.0131  0.0235 -0.1750
 9698SOL    HW130514   2.980   3.892   6.971 -0.5525 -1.0113 -0.0075
 9698SOL    HW230515   3.081   3.879   7.084  0.2372  0.6062 -0.4989
 9699SOL     OW30516   6.842   5.274   3.010  0.4779 -0.9827 -0.2891
 9699SOL    HW130517   6.883   5.346   3.057 -0.9334 -1.2077  1.3914
 9699SOL    HW230518   6.758   5.262   3.053  0.2777 -3.0271 -1.1346
 9700SOL     OW30519   0.915   1.916   2.748  0.1102 -0.6371  0.3709
 9700SOL    HW130520   1.001   1.876   2.735  0.1747 -0.9560  1.6486
 9700SOL    HW230521   0.859   1.876   2.681  0.7025 -1.2389  0.2316
 9701SOL     OW30522   1.884   3.789   7.551 -0.9391  0.0177  0.1519
 9701SOL    HW130523   1.873   3.695   7.566 -3.7581  0.0715 -0.8362
 9701SOL    HW230524   1.882   3.828   7.638 -1.1421 -0.7517  0.5048
 9702SOL     OW30525   7.484   5.073   2.029  0.3693 -0.5071 -0.3206
 9702SOL    HW130526   7.500   5.118   2.112  1.8089 -1.7270  0.1059
 9702SOL    HW230527   7.527   5.127   1.963  1.4671 -0.8553  0.0875
 9703SOL     OW30528   7.012   2.310   5.681 -0.4653  0.3801 -0.4100
 9703SOL    HW130529   7.090   2.275   5.639  0.1224  2.0668 -0.7942
 9703SOL    HW230530   7.022   2.405   5.676 -1.9726  0.6347  0.6026
 9704SOL     OW30531   7.477   1.725   3.675  0.5485  0.4954  0.1804
 9704SOL    HW130532   7.470   1.657   3.742  2.2377 -0.7816 -0.8373
 9704SOL    HW230533   7.508   1.802   3.722  0.0078  0.1583  1.1304
 9705SOL     OW30534   3.943   1.888   1.704 -0.4292  0.3401  0.8616
 9705SOL    HW130535   3.997   1.814   1.734 -0.4252 -0.0992 -0.1989
 9705SOL    HW230536   3.875   1.848   1.650 -0.0628  1.1610 -0.2326
 9706SOL     OW30537   8.001   3.331   4.968  0.3163  0.1966  0.1262
 9706SOL    HW130538   7.986   3.412   4.921 -0.6489 -1.0619 -1.8558
 9706SOL    HW230539   7.950   3.340   5.049 -0.7195  1.0819 -0.6132
 9707SOL     OW30540   2.072   1.288   5.326 -0.0767 -0.4080  0.4471
 9707SOL    HW130541   2.069   1.269   5.419  1.7599 -0.9752  0.4317
 9707SOL    HW230542   2.101   1.206   5.285  1.4161  0.4631 -0.3441
 9708SOL     OW30543   5.937   3.675   0.558 -0.1989 -0.7781  0.4152
 9708SOL    HW130544   5.961   3.766   0.576  0.1094 -1.1137  1.8175
 9708SOL    HW230545   5.843   3.671   0.579 -0.9700 -0.1410 -2.4032
 9709SOL     OW30546   6.396   3.380   5.518  0.2519 -0.1460 -0.4153
 9709SOL    HW130547   6.350   3.460   5.544  0.4157  0.4118 -1.7148
 9709SOL    HW230548   6.469   3.373   5.578  1.2342  1.6672 -1.3043
 9710SOL     OW30549   7.678   1.153   2.566  0.2142  0.7380 -0.2095
 9710SOL    HW130550   7.732   1.102   2.627  0.6968 -1.2540 -2.1777
 9710SOL    HW230551   7.588   1.137   2.596  0.4868  0.5140  0.5171
 9711SOL     OW30552   6.436   1.808   3.458  0.0260 -0.2180 -0.0897
 9711SOL    HW130553   6.350   1.766   3.468  0.3282 -1.3599 -1.8677
 9711SOL    HW230554   6.420   1.883   3.401  0.2762 -0.7745 -0.9134
 9712SOL     OW30555   6.498   0.786   1.368  0.2582  0.1469 -0.1669
 9712SOL    HW130556   6.438   0.803   1.441 -0.9787  2.3654 -1.5822
 9712SOL    HW230557   6.577   0.751   1.410 -0.0257  2.1827  2.3571
 9713SOL     OW30558   6.586   1.870   5.223 -0.2429  0.2213 -0.4392
 9713SOL    HW130559   6.613   1.856   5.132 -0.6805 -1.1850 -0.3861
 9713SOL    HW230560   6.514   1.807   5.236  0.5644 -0.4223  1.2049
 9714SOL     OW30561   5.944   1.463   4.022 -0.4063 -0.3789  0.2258
 9714SOL    HW130562   5.954   1.518   4.099 -0.0755  0.0762 -0.1340
 9714SOL    HW230563   5.910   1.523   3.955 -0.3634 -0.6902 -0.0751
 9715SOL     OW30564   7.556   1.551   1.912  0.0247 -0.1893 -0.5917
 9715SOL    HW130565   7.622   1.485   1.934 -0.5649 -0.4658  0.4061
 9715SOL    HW230566   7.549   1.547   1.817 -0.0234 -1.5991 -0.5460
 9716SOL     OW30567   0.630   7.617   6.445  0.4463  0.0420 -0.5752
 9716SOL    HW130568   0.665   7.539   6.401 -1.2925 -0.8901 -0.3932
 9716SOL    HW230569   0.601   7.585   6.531 -3.5235 -0.0035 -1.7554
 9717SOL     OW30570   5.170   2.927   1.323  0.6111 -0.3889 -0.0484
 9717SOL    HW130571   5.116   2.999   1.356 -0.7631 -0.9275 -1.0340
 9717SOL    HW230572   5.120   2.891   1.249  2.3118 -0.9480 -0.9750
 9718SOL     OW30573   3.475   7.670   5.805  0.2789 -0.2365 -0.1286
 9718SOL    HW130574   3.438   7.582   5.810 -1.4344  0.4363 -0.2672
 9718SOL    HW230575   3.439   7.715   5.881 -0.4778  0.9058 -1.1282
 9719SOL     OW30576   1.499   1.822   4.714  0.0836  0.4611  0.0132
 9719SOL    HW130577   1.493   1.744   4.660 -0.4147  1.4127 -1.3895
 9719SOL    HW230578   1.457   1.891   4.661  0.3158  1.6269  1.2740
 9720SOL     OW30579   0.100   2.382   6.292 -0.5414  0.0154  0.4848
 9720SOL    HW130580   0.076   2.472   6.313 -0.3632  0.3583 -0.7302
 9720SOL    HW230581   0.111   2.381   6.197 -0.6166 -1.3107  0.4686
 9721SOL     OW30582   5.041   0.654   2.479 -0.2317  1.0216 -0.0928
 9721SOL    HW130583   4.959   0.701   2.465 -0.9106 -0.3674 -1.1138
 9721SOL    HW230584   5.078   0.645   2.391  0.1310  0.1415  0.1435
 9722SOL     OW30585   5.663   3.827   0.251 -0.3778 -0.6202 -0.9261
 9722SOL    HW130586   5.592   3.831   0.187 -1.2047  1.2038  0.0121
 9722SOL    HW230587   5.620   3.802   0.333 -0.4979  2.6918  0.1896
 9723SOL     OW30588   5.678   2.134   7.958 -0.4278 -0.9460  0.3840
 9723SOL    HW130589   5.698   2.096   7.872 -1.7550 -1.4452  0.2706
 9723SOL    HW230590   5.736   2.210   7.965 -1.2588 -0.0718 -1.5528
 9724SOL     OW30591   7.332   2.103   4.754 -0.2788  0.1293 -0.1312
 9724SOL    HW130592   7.401   2.136   4.696  0.9206 -0.1769  1.0658
 9724SOL    HW230593   7.318   2.013   4.727  0.7053 -0.2021  0.3981
 9725SOL     OW30594   7.592   7.718   2.076  0.0372  0.6731  0.1405
 9725SOL    HW130595   7.549   7.803   2.080  0.9404  1.1574 -0.2988
 9725SOL    HW230596   7.571   7.685   1.988 -0.9629  0.0806  0.5845
 9726SOL     OW30597   5.494   7.599   4.689  0.0122  0.3572  0.5305
 9726SOL    HW130598   5.475   7.692   4.678  1.5288  0.5420 -0.9958
 9726SOL    HW230599   5.515   7.568   4.600  2.6482 -0.6792  1.4045
 9727SOL     OW30600   2.906   4.160   4.308  0.3039  0.2118 -0.2511
 9727SOL    HW130601   2.896   4.239   4.362 -4.0503 -2.0372  2.8020
 9727SOL    HW230602   2.978   4.112   4.350 -0.4092  0.3100  1.1415
 9728SOL     OW30603   3.012   0.157   1.583  0.2458 -0.3525  0.3414
 9728SOL    HW130604   3.025   0.245   1.547 -2.1772  0.1975  0.6513
 9728SOL    HW230605   3.058   0.100   1.522  1.1694  1.0512 -0.3386
 9729SOL     OW30606   4.311   6.279   8.060  0.5552 -0.5081 -0.2946
 9729SOL    HW130607   4.372   6.264   8.131  0.2703  1.5364  0.4394
 9729SOL    HW230608   4.350   6.349   8.009 -1.6384  1.7088  0.8758
 9730SOL     OW30609   0.536   6.038   3.190  0.1917  0.0694 -0.4551
 9730SOL    HW130610   0.447   6.070   3.205  0.1295 -0.0739 -0.5146
 9730SOL    HW230611   0.573   6.098   3.126 -0.3300 -0.6702 -1.4659
 9731SOL     OW30612   2.875   3.167   1.196 -0.3379  0.0483 -0.5619
 9731SOL    HW130613   2.945   3.102   1.199  0.7596  1.2086  0.0865
 9731SOL    HW230614   2.867   3.190   1.104  0.7180  0.4630 -0.5697
 9732SOL     OW30615   6.975   5.629   6.792  0.4479  0.4153  0.2478
 9732SOL    HW130616   6.887   5.664   6.807  0.4719  0.6906 -0.2215
 9732SOL    HW230617   7.026   5.704   6.761  0.7648  0.1891  0.2108
 9733SOL     OW30618   7.919   0.071   7.748  0.2583  0.4553  0.0911
 9733SOL    HW130619   7.854   0.142   7.748 -0.1390  0.1058 -0.5910
 9733SOL    HW230620   7.878   0.002   7.695  0.8946 -0.0442  0.2454
 9734SOL     OW30621   7.863   1.962   5.148  0.0121 -0.1239 -0.6136
 9734SOL    HW130622   7.844   2.029   5.215  0.7374 -1.7383  1.3255
 9734SOL    HW230623   7.781   1.951   5.101 -1.1522 -0.2997  1.3463
 9735SOL     OW30624   2.013   2.082   6.818 -0.1153 -0.2882 -0.3036
 9735SOL    HW130625   2.023   2.148   6.750  0.0597  3.2577  2.8315
 9735SOL    HW230626   2.095   2.032   6.815  0.1619  0.2020 -2.1798
 9736SOL     OW30627   7.588   5.311   7.547  0.1296  0.5135 -0.3093
 9736SOL    HW130628   7.577   5.389   7.493 -1.3500  0.2730 -0.3911
 9736SOL    HW230629   7.593   5.238   7.485  0.1851  0.4073 -0.1819
 9737SOL     OW30630   2.193   5.949   7.057  0.6656 -0.0991  0.0052
 9737SOL    HW130631   2.223   6.038   7.075 -0.7809  0.1760  1.1978
 9737SOL    HW230632   2.163   5.952   6.966 -1.7330  1.3813  0.7421
 9738SOL     OW30633   3.279   2.595   0.963 -0.3400  0.2687 -0.3376
 9738SOL    HW130634   3.307   2.670   0.909 -0.9630  1.5812  1.1087
 9738SOL    HW230635   3.361   2.555   0.992  0.0138  1.0280 -0.2642
 9739SOL     OW30636   5.788   6.967   7.897  0.5608 -0.2808  0.4055
 9739SOL    HW130637   5.871   6.996   7.935  1.2559 -1.4845 -0.1125
 9739SOL    HW230638   5.761   6.894   7.953  1.4092 -1.8339 -1.0913
 9740SOL     OW30639   1.956   0.437   2.035 -0.1984 -0.0979 -0.1310
 9740SOL    HW130640   2.024   0.488   1.991  0.1243  0.2052  0.6934
 9740SOL    HW230641   1.902   0.402   1.964  0.4771  0.1336 -0.7704
 9741SOL     OW30642   5.555   6.460   5.977  0.5508  0.2012  0.1419
 9741SOL    HW130643   5.481   6.515   6.003  0.1856 -1.1125  2.0678
 9741SOL    HW230644   5.632   6.509   6.005  0.2680  0.2400  0.8808
 9742SOL     OW30645   6.400   4.295   7.529 -0.1758  0.3521  0.0790
 9742SOL    HW130646   6.355   4.379   7.533 -1.2009 -0.2245  1.3936
 9742SOL    HW230647   6.482   4.310   7.577 -0.8358  0.3524  1.2521
 9743SOL     OW30648   3.475   5.735   0.751 -0.0096 -0.4854  0.6348
 9743SOL    HW130649   3.466   5.814   0.804 -2.3655 -0.1161 -0.1981
 9743SOL    HW230650   3.560   5.744   0.708  0.0322  1.2841  1.0292
 9744SOL     OW30651   3.999   0.773   6.381 -0.2354  0.0898  0.3233
 9744SOL    HW130652   4.058   0.748   6.310 -1.9372  0.0215 -1.1463
 9744SOL    HW230653   3.976   0.690   6.423 -0.6995 -0.1036 -0.2932
 9745SOL     OW30654   7.814   4.588   0.953  0.1396  0.0234 -0.2362
 9745SOL    HW130655   7.857   4.510   0.917  1.6536  0.8070 -0.1955
 9745SOL    HW230656   7.856   4.661   0.908 -1.4846  0.8394 -0.5066
 9746SOL     OW30657   4.240   0.045   6.698 -0.7046  0.0166 -0.1312
 9746SOL    HW130658   4.283  -0.012   6.761  0.5768 -0.4897 -1.3979
 9746SOL    HW230659   4.175  -0.011   6.655  1.0323 -0.7836 -1.8671
 9747SOL     OW30660   6.008   5.500   0.423  0.5834 -0.0288  0.1853
 9747SOL    HW130661   6.098   5.492   0.393  0.5416  0.0431  0.0380
 9747SOL    HW230662   6.013   5.493   0.518  0.6949 -0.4824  0.1480
 9748SOL     OW30663   1.412   5.944   3.258 -0.1636 -0.2748 -0.5648
 9748SOL    HW130664   1.337   5.897   3.224  0.1413 -0.1517 -1.4186
 9748SOL    HW230665   1.434   5.899   3.340 -1.6706  0.2074  0.1369
 9749SOL     OW30666   3.090   0.626   4.748 -0.2976 -0.5556 -0.1056
 9749SOL    HW130667   3.091   0.719   4.727 -1.0593  0.1685  2.6034
 9749SOL    HW230668   3.151   0.618   4.822 -0.9696 -2.0025  0.3287
 9750SOL     OW30669   6.134   2.103   4.050  0.4645  0.4108  0.3641
 9750SOL    HW130670   6.151   2.193   4.021 -2.4090  1.3074  1.0789
 9750SOL    HW230671   6.097   2.113   4.137  1.5292 -1.6328  1.1069
 9751SOL     OW30672   0.409   1.039   0.812  0.1909  0.2895  0.1470
 9751SOL    HW130673   0.475   1.096   0.852  2.8500 -1.9692 -0.6637
 9751SOL    HW230674   0.388   0.975   0.880  0.9751 -0.6241 -0.4451
 9752SOL     OW30675   7.049   7.480   5.538 -0.1837  0.6466 -0.1064
 9752SOL    HW130676   7.015   7.460   5.625 -2.0483  3.8808  0.0655
 9752SOL    HW230677   6.971   7.481   5.482  0.6200  1.1879 -1.2432
 9753SOL     OW30678   6.502   1.407   7.994  0.3499  0.3833 -0.0875
 9753SOL    HW130679   6.554   1.384   8.071  0.4334 -0.0005 -0.2558
 9753SOL    HW230680   6.561   1.391   7.920  0.0841  0.2178 -0.2623
 9754SOL     OW30681   5.716   2.132   3.521 -0.7804 -0.3790  0.3404
 9754SOL    HW130682   5.633   2.153   3.564 -1.2743 -1.1010 -0.2159
 9754SOL    HW230683   5.762   2.075   3.582 -0.9101 -0.3694  0.4465
 9755SOL     OW30684   6.780   3.154   0.977 -0.5341  0.1005 -0.2837
 9755SOL    HW130685   6.769   3.147   1.072  0.7928 -2.6792 -0.2653
 9755SOL    HW230686   6.859   3.207   0.966 -0.0994 -0.4320  0.2058
 9756SOL     OW30687   0.737   0.160   0.311  0.0931 -0.0128 -0.7035
 9756SOL    HW130688   0.769   0.082   0.358  0.1055  1.3771  1.7447
 9756SOL    HW230689   0.815   0.196   0.269  0.2430 -0.8213 -1.1471
 9757SOL     OW30690   2.006   2.029   5.523 -0.2998 -0.2101  0.1434
 9757SOL    HW130691   2.073   1.962   5.511 -0.5100 -0.2853 -0.6416
 9757SOL    HW230692   1.957   2.029   5.441  0.1975  1.4425 -0.2021
 9758SOL     OW30693   5.531   3.429   2.357 -0.4681  0.1620 -0.0166
 9758SOL    HW130694   5.627   3.434   2.358 -0.3843 -0.9404 -0.8095
 9758SOL    HW230695   5.502   3.516   2.383  0.7476  0.3093  0.9253
 9759SOL     OW30696   7.606   0.556   1.651  0.5799  0.0721 -0.0860
 9759SOL    HW130697   7.579   0.534   1.562  1.1305 -0.0628 -0.2228
 9759SOL    HW230698   7.618   0.471   1.694  1.2794  0.1207 -0.1793
 9760SOL     OW30699   3.670   1.173   5.112  0.0732 -0.0900  0.4791
 9760SOL    HW130700   3.627   1.157   5.028  0.5056 -0.1841  0.2688
 9760SOL    HW230701   3.612   1.134   5.177 -0.8820  1.0632  0.3510
 9761SOL     OW30702   3.264   0.947   4.308  0.4746 -0.1719  0.1496
 9761SOL    HW130703   3.211   0.873   4.336  1.8632 -1.7929 -1.2633
 9761SOL    HW230704   3.294   0.988   4.389 -1.1245 -0.5030  0.9548
 9762SOL     OW30705   2.949   1.695   2.234 -0.2161  0.4524  0.3737
 9762SOL    HW130706   2.854   1.706   2.226 -0.1702  1.0704  0.6345
 9762SOL    HW230707   2.968   1.617   2.182 -0.9344  0.0144  0.7480
 9763SOL     OW30708   3.793   5.666   1.739  0.0494  0.4354  0.5111
 9763SOL    HW130709   3.774   5.752   1.778  2.4624  0.5606  1.5790
 9763SOL    HW230710   3.778   5.679   1.645 -1.6606  1.3821  0.8672
 9764SOL     OW30711   5.819   5.714   7.560 -0.2496  0.5577 -0.7087
 9764SOL    HW130712   5.871   5.689   7.484  0.1309  1.4010 -0.7340
 9764SOL    HW230713   5.767   5.788   7.530  1.2890  2.1415  0.3551
 9765SOL     OW30714   7.368   5.075   4.676  0.1194 -0.1717  0.6936
 9765SOL    HW130715   7.311   5.065   4.752 -0.3364 -0.0931  0.3669
 9765SOL    HW230716   7.309   5.066   4.601 -0.0497  2.8102  0.3264
 9766SOL     OW30717   2.347   1.162   2.403  0.7553 -0.0539 -0.0854
 9766SOL    HW130718   2.325   1.074   2.370  0.3746 -0.4830  1.2731
 9766SOL    HW230719   2.436   1.177   2.371 -0.1213  0.2238 -2.6408
 9767SOL     OW30720   0.690   6.545   5.290 -0.5660  0.6186 -0.1407
 9767SOL    HW130721   0.673   6.499   5.207 -1.2487  0.9466 -0.1894
 9767SOL    HW230722   0.603   6.571   5.321 -0.3841 -0.1025  1.0306
 9768SOL     OW30723   1.490   6.034   4.838  0.0010  0.0849 -0.5258
 9768SOL    HW130724   1.458   6.077   4.918  0.5404  0.2143 -0.3712
 9768SOL    HW230725   1.565   5.983   4.868  0.3769  0.3527 -0.9989
 9769SOL     OW30726   1.300   5.754   5.000 -1.3073  1.2136 -0.3945
 9769SOL    HW130727   1.240   5.818   5.038 -0.0758  0.9442  2.2336
 9769SOL    HW230728   1.288   5.676   5.054 -0.0460  0.5009 -1.0999
 9770SOL     OW30729   4.910   7.517   0.537 -0.2681 -0.4913 -0.7985
 9770SOL    HW130730   4.828   7.483   0.501 -0.1725  0.0515 -1.5503
 9770SOL    HW230731   4.888   7.543   0.627 -1.0140 -0.0265 -1.1032
 9771SOL     OW30732   5.602   5.675   0.801 -0.3486 -0.0021  0.0974
 9771SOL    HW130733   5.599   5.726   0.882  0.9017  0.3104 -0.0292
 9771SOL    HW230734   5.513   5.640   0.791 -0.2624 -0.9189  2.1551
 9772SOL     OW30735   3.998   2.584   7.205  0.2988 -0.0809  0.1911
 9772SOL    HW130736   4.041   2.629   7.132 -1.0021  0.7487 -0.1078
 9772SOL    HW230737   4.060   2.589   7.277 -0.1216  3.1026  0.4819
 9773SOL     OW30738   7.437   2.353   3.607  0.1975 -0.0502  0.1772
 9773SOL    HW130739   7.474   2.431   3.649  1.1235 -0.1970 -0.3258
 9773SOL    HW230740   7.392   2.386   3.529  1.3357 -0.0729 -0.5170
 9774SOL     OW30741   2.687   0.811   3.948  0.5383  0.1265 -0.5822
 9774SOL    HW130742   2.663   0.736   4.002  1.5996  0.6490  0.6527
 9774SOL    HW230743   2.631   0.882   3.979 -0.9099 -0.2464 -2.1660
 9775SOL     OW30744   6.051   3.792   2.710  0.3260 -0.3274 -0.2606
 9775SOL    HW130745   5.957   3.806   2.711  0.0947 -1.7053 -0.7321
 9775SOL    HW230746   6.089   3.880   2.717 -0.9726  0.1490  1.2375
 9776SOL     OW30747   1.866   3.600   0.636  0.5840  0.6060  0.5873
 9776SOL    HW130748   1.894   3.684   0.672  0.4351  0.5973  0.7256
 9776SOL    HW230749   1.772   3.611   0.620  0.6742  0.6537  0.0803
 9777SOL     OW30750   0.549   0.953   2.778  0.3603  0.1299 -0.1895
 9777SOL    HW130751   0.595   0.936   2.861  0.3158  1.0742  0.0384
 9777SOL    HW230752   0.457   0.938   2.798  0.4005 -0.1521 -0.2103
 9778SOL     OW30753   6.890   0.153   7.480 -0.4518  0.4201  0.0691
 9778SOL    HW130754   6.924   0.176   7.394 -2.0549  1.2252 -0.3851
 9778SOL    HW230755   6.833   0.078   7.464  0.2942 -0.2956  0.6641
 9779SOL     OW30756   0.323   2.012   6.561 -0.4969 -0.2376 -0.2826
 9779SOL    HW130757   0.300   2.084   6.503  0.7556 -1.5420 -2.5453
 9779SOL    HW230758   0.418   2.005   6.554 -0.5215 -1.7017  0.3594
 9780SOL     OW30759   4.691   1.740   4.448  0.0034 -0.1542 -0.0022
 9780SOL    HW130760   4.606   1.772   4.419  0.1505 -0.2857 -0.5941
 9780SOL    HW230761   4.744   1.819   4.458 -0.1282 -0.0874  0.1816
 9781SOL     OW30762   3.621   0.212   7.899 -0.3753  0.2143 -0.0779
 9781SOL    HW130763   3.683   0.164   7.843 -1.4737 -0.8836 -0.4136
 9781SOL    HW230764   3.571   0.143   7.942 -0.9425  1.0810  0.6647
 9782SOL     OW30765   1.324   6.018   6.774 -0.0876  0.1360  0.5537
 9782SOL    HW130766   1.265   6.094   6.766 -0.1352  0.1579  1.0681
 9782SOL    HW230767   1.412   6.055   6.771 -0.0696  0.0333 -0.9467
 9783SOL     OW30768   1.970   6.131   7.366 -0.3702 -0.6602  0.6764
 9783SOL    HW130769   1.982   6.039   7.390  0.6588 -0.9705 -0.8413
 9783SOL    HW230770   2.058   6.169   7.370 -0.8890  0.4692  1.9955
 9784SOL     OW30771   1.903   1.572   5.504  0.0031 -0.7289 -0.7727
 9784SOL    HW130772   1.936   1.624   5.431  0.9902  1.3725  1.0648
 9784SOL    HW230773   1.981   1.531   5.541 -0.3816 -1.1947 -0.4706
 9785SOL     OW30774   6.623   4.456   2.362 -0.3417  0.5935  0.1200
 9785SOL    HW130775   6.637   4.481   2.453  2.7817 -1.7387  0.4430
 9785SOL    HW230776   6.710   4.461   2.322 -1.2441 -0.4820 -2.1693
 9786SOL     OW30777   5.797   6.166   4.763 -0.4963 -0.3004  0.1657
 9786SOL    HW130778   5.762   6.159   4.852  1.0979  1.0335  0.9446
 9786SOL    HW230779   5.721   6.186   4.709 -1.4985 -1.1553  1.2001
 9787SOL     OW30780   3.566   1.703   7.116  0.5782  0.4527  0.1925
 9787SOL    HW130781   3.480   1.723   7.152  0.7494  0.2701  0.7170
 9787SOL    HW230782   3.551   1.691   7.022 -0.1312 -0.5229  0.4134
 9788SOL     OW30783   7.724   5.118   1.894  0.3742 -0.0665  0.0805
 9788SOL    HW130784   7.808   5.129   1.939  1.2060  2.6349 -1.9033
 9788SOL    HW230785   7.720   5.190   1.831 -4.0178  0.6783  0.8703
 9789SOL     OW30786   3.443   1.750   2.636 -0.4664 -0.2050  0.0349
 9789SOL    HW130787   3.376   1.691   2.668  0.1385 -2.0619 -1.9509
 9789SOL    HW230788   3.417   1.771   2.546  0.0553  1.5049  0.2360
 9790SOL     OW30789   2.989   1.047   7.876  0.2704 -0.3007 -0.1265
 9790SOL    HW130790   2.961   1.108   7.944  1.9459 -0.6395  0.9286
 9790SOL    HW230791   3.055   1.096   7.826  0.5807 -0.7565 -0.1688
 9791SOL     OW30792   4.087   7.622   4.020  0.0640  0.2501 -0.0841
 9791SOL    HW130793   3.996   7.651   4.027  0.6188  2.3327 -0.9720
 9791SOL    HW230794   4.123   7.670   3.945  2.3770  0.8170  1.2826
 9792SOL     OW30795   2.342   5.531   7.820 -0.4133 -0.2281  0.1900
 9792SOL    HW130796   2.288   5.544   7.742  0.6865 -0.2392 -0.5908
 9792SOL    HW230797   2.340   5.436   7.835 -1.2365 -0.1509  0.6399
 9793SOL     OW30798   6.548   7.769   5.126 -0.6041  0.0123  0.0212
 9793SOL    HW130799   6.584   7.680   5.122  1.4742  0.7971 -0.5394
 9793SOL    HW230800   6.581   7.804   5.209 -0.6706  0.5426 -0.1750
 9794SOL     OW30801   2.298   3.358   4.463  0.1163  0.1108  0.0878
 9794SOL    HW130802   2.239   3.333   4.534  0.5879  1.6457  1.0655
 9794SOL    HW230803   2.263   3.441   4.431  0.3448 -0.1900 -0.9937
 9795SOL     OW30804   4.284   3.005   7.477  0.4563 -0.0479 -0.0127
 9795SOL    HW130805   4.325   2.961   7.552 -3.8345 -1.0844  2.0660
 9795SOL    HW230806   4.330   3.088   7.470  3.0224 -1.1740  1.7739
 9796SOL     OW30807   2.808   3.994   7.239  0.0916 -0.1747  0.2973
 9796SOL    HW130808   2.878   4.005   7.174  0.1496  1.5919  0.5974
 9796SOL    HW230809   2.727   4.009   7.190  0.0607 -0.1137  0.3661
 9797SOL     OW30810   1.349   1.406   6.426  0.1343  0.1335  0.5217
 9797SOL    HW130811   1.273   1.385   6.480 -1.8845  0.8587 -1.8638
 9797SOL    HW230812   1.405   1.329   6.433 -0.3932 -0.1037  2.9537
 9798SOL     OW30813   2.875   3.362   2.695  0.3781  0.5744  0.1060
 9798SOL    HW130814   2.894   3.451   2.725 -0.4371  0.7640  0.0869
 9798SOL    HW230815   2.789   3.369   2.654  0.1458 -0.2982  0.4334
 9799SOL     OW30816   0.435   5.040   6.194 -0.5263  0.6663  0.1541
 9799SOL    HW130817   0.387   5.038   6.276 -1.0575  1.1908 -0.1359
 9799SOL    HW230818   0.368   5.032   6.126  0.0419 -1.6036 -0.2229
 9800SOL     OW30819   7.517   3.937   7.385 -0.2502 -0.2583 -0.1599
 9800SOL    HW130820   7.522   3.905   7.475  0.1376 -1.5944 -0.6222
 9800SOL    HW230821   7.424   3.955   7.371 -0.4264 -0.7783  0.2775
 9801SOL     OW30822   4.413   5.711   2.614 -0.3171  0.1874  0.2234
 9801SOL    HW130823   4.420   5.806   2.609 -1.8488  0.3909  1.4214
 9801SOL    HW230824   4.349   5.694   2.683 -0.0608 -1.7202  0.0625
 9802SOL     OW30825   4.258   0.570   3.327 -0.5940 -0.0357  0.4196
 9802SOL    HW130826   4.311   0.505   3.281  2.5237  2.8433 -0.4125
 9802SOL    HW230827   4.209   0.519   3.392  1.0671 -3.2535 -0.6358
 9803SOL     OW30828   3.294   4.024   0.584  0.0493 -0.0260 -0.3499
 9803SOL    HW130829   3.344   3.951   0.618  0.5365  0.0064 -0.9673
 9803SOL    HW230830   3.342   4.102   0.612 -1.1551  0.1298  1.3910
 9804SOL     OW30831   6.887   0.114   5.119 -0.3869  0.4593 -0.0450
 9804SOL    HW130832   6.872   0.094   5.211  0.6033  0.5885  0.1554
 9804SOL    HW230833   6.978   0.142   5.115 -0.5248  0.8088 -1.0095
 9805SOL     OW30834   7.485   4.974   7.566 -0.0278 -0.3972  0.1611
 9805SOL    HW130835   7.464   5.055   7.612 -0.6152 -1.2931  1.5379
 9805SOL    HW230836   7.416   4.913   7.592  1.0826 -1.7102  0.1538
 9806SOL     OW30837   3.627   0.110   0.790  0.2045  0.0805 -0.5788
 9806SOL    HW130838   3.635   0.073   0.702 -0.1572 -0.1547 -0.5176
 9806SOL    HW230839   3.561   0.179   0.781 -0.8562 -0.8485 -0.2288
 9807SOL     OW30840   0.556   1.090   0.295  0.1619 -0.9192  0.0028
 9807SOL    HW130841   0.558   1.074   0.389 -1.6223 -1.4582 -0.0099
 9807SOL    HW230842   0.624   1.033   0.259  0.3311 -1.2881  0.8900
 9808SOL     OW30843   7.035   0.264   1.990  0.1268  0.4956  0.2624
 9808SOL    HW130844   7.115   0.246   1.941 -1.0107 -0.1487 -1.4546
 9808SOL    HW230845   6.965   0.255   1.925 -1.3162  1.3706  1.6340
 9809SOL     OW30846   0.657   2.537   4.930 -0.1871  0.2449 -0.0570
 9809SOL    HW130847   0.594   2.609   4.926 -2.2447 -1.3715  1.0412
 9809SOL    HW230848   0.670   2.522   5.024 -1.4713 -2.0877 -0.1708
 9810SOL     OW30849   1.252   4.577   6.817  0.0890 -0.3112 -0.1192
 9810SOL    HW130850   1.321   4.621   6.768  1.3852 -2.0998  0.0098
 9810SOL    HW230851   1.241   4.492   6.774  0.7512 -1.6414  2.1534
 9811SOL     OW30852   5.622   1.547   4.023 -0.5037 -0.5012 -0.3556
 9811SOL    HW130853   5.546   1.591   3.986 -0.7005 -0.3523  0.2170
 9811SOL    HW230854   5.697   1.592   3.984 -0.6867  0.8941  0.8119
 9812SOL     OW30855   1.878   1.377   1.727 -0.0563 -0.9453 -0.5280
 9812SOL    HW130856   1.956   1.324   1.710  1.9164  1.6147 -0.0709
 9812SOL    HW230857   1.856   1.415   1.642  0.2350 -0.3777 -0.3556
 9813SOL     OW30858   2.171   5.301   1.547  0.4299  0.0584  0.3301
 9813SOL    HW130859   2.134   5.390   1.543 -0.1765 -0.1035  1.7129
 9813SOL    HW230860   2.232   5.304   1.621  2.1413 -0.0839 -1.0183
 9814SOL     OW30861   1.037   2.195   5.120 -0.3759  0.4279  0.1673
 9814SOL    HW130862   0.969   2.246   5.165 -0.6277  1.0981 -0.9262
 9814SOL    HW230863   1.018   2.207   5.027  0.2116 -0.8106 -0.1323
 9815SOL     OW30864   5.756   5.891   3.495 -0.6346 -0.4899 -0.5149
 9815SOL    HW130865   5.843   5.907   3.458 -0.4475 -0.0953  0.0809
 9815SOL    HW230866   5.744   5.796   3.486 -0.0785 -0.5698 -0.4862
 9816SOL     OW30867   7.458   1.710   2.135  0.7521 -0.2779  0.0018
 9816SOL    HW130868   7.498   1.661   2.206  2.7401 -0.8066 -1.3837
 9816SOL    HW230869   7.485   1.663   2.056 -1.8543 -0.0597 -1.1077
 9817SOL     OW30870   3.040   2.480   0.839 -0.1725  0.0976  0.3031
 9817SOL    HW130871   3.123   2.493   0.886  0.3169  0.5235 -0.6641
 9817SOL    HW230872   3.059   2.412   0.775 -0.4338  0.5127 -0.2253
 9818SOL     OW30873   6.341   3.441   0.658  0.2049 -0.2039 -0.4151
 9818SOL    HW130874   6.372   3.531   0.649  0.9966 -0.3180  0.8349
 9818SOL    HW230875   6.255   3.441   0.615  1.3723  0.4165 -2.9158
 9819SOL     OW30876   1.087   4.102   0.398 -0.1669 -0.0257 -0.7990
 9819SOL    HW130877   1.033   4.075   0.472 -1.5344  2.3909 -0.7903
 9819SOL    HW230878   1.042   4.068   0.322 -1.4941  1.4852 -0.7510
 9820SOL     OW30879   4.141   0.075   1.661 -0.2505  0.0502  0.1370
 9820SOL    HW130880   4.180   0.006   1.714  0.2491  0.2782  0.0703
 9820SOL    HW230881   4.122   0.146   1.724 -3.6842 -1.2708  0.8314
 9821SOL     OW30882   2.442   3.598   0.234 -0.1716  0.0430  0.0981
 9821SOL    HW130883   2.443   3.641   0.319  1.4392  0.1310  0.0816
 9821SOL    HW230884   2.408   3.511   0.250 -1.1575  0.5099  0.5771
 9822SOL     OW30885   1.870   7.032   4.916 -0.3290 -0.0146 -0.3196
 9822SOL    HW130886   1.789   7.064   4.957 -0.3743  1.9213 -1.7757
 9822SOL    HW230887   1.843   7.004   4.829  0.4272 -0.0742 -0.5415
 9823SOL     OW30888   7.549   0.832   5.027  0.3596 -0.0113 -0.2824
 9823SOL    HW130889   7.611   0.835   4.954 -0.3379 -1.1114 -0.9668
 9823SOL    HW230890   7.585   0.891   5.093  0.4627  1.8806 -1.9406
 9824SOL     OW30891   3.448   0.762   3.198 -0.1219 -0.2420  0.1113
 9824SOL    HW130892   3.361   0.722   3.190  0.2084 -0.8000 -0.8590
 9824SOL    HW230893   3.455   0.784   3.291  0.0986 -3.4959  1.0135
 9825SOL     OW30894   0.619   2.666   2.761 -0.0062  0.1699  0.0966
 9825SOL    HW130895   0.579   2.666   2.848 -0.2052  1.3174  0.0255
 9825SOL    HW230896   0.575   2.594   2.715 -1.6130  1.0417  0.2026
 9826SOL     OW30897   2.670   0.266   1.075  0.0952 -0.1565  0.1067
 9826SOL    HW130898   2.659   0.340   1.016 -1.9872  0.2188  0.8858
 9826SOL    HW230899   2.739   0.213   1.034  0.0675  1.0496 -1.6242
 9827SOL     OW30900   1.825   4.663   0.166  0.1677 -0.1926 -0.3840
 9827SOL    HW130901   1.781   4.733   0.117 -0.8475 -0.2588  0.3951
 9827SOL    HW230902   1.894   4.708   0.215 -0.4634  0.2780  0.0908
 9828SOL     OW30903   3.856   1.753   5.586 -0.1937 -0.0854 -0.2833
 9828SOL    HW130904   3.819   1.787   5.504 -0.9880  0.5033  0.2977
 9828SOL    HW230905   3.838   1.822   5.650 -1.1089 -1.2511  0.7520
 9829SOL     OW30906   7.559   3.048   7.552 -0.2941  0.5301 -0.4847
 9829SOL    HW130907   7.488   3.048   7.616 -0.7005  3.1331 -0.8015
 9829SOL    HW230908   7.630   3.095   7.595 -0.3648  1.7958 -1.6449
 9830SOL     OW30909   3.204   0.650   3.855  0.1309 -0.2808 -0.1086
 9830SOL    HW130910   3.258   0.719   3.894 -0.1234  0.3485 -0.8220
 9830SOL    HW230911   3.121   0.654   3.904  0.8535 -1.5655  1.3020
 9831SOL     OW30912   1.815   4.672   6.463 -0.6959 -0.3090  0.8207
 9831SOL    HW130913   1.726   4.704   6.448 -0.6420 -0.2389  0.6424
 9831SOL    HW230914   1.806   4.608   6.533 -0.8178  0.0255  1.1147
 9832SOL     OW30915   5.489   0.709   1.588 -0.0610  0.1408 -0.2995
 9832SOL    HW130916   5.549   0.665   1.527  0.0615 -0.6931  0.4015
 9832SOL    HW230917   5.403   0.700   1.548  0.2469  1.1913 -1.2306
 9833SOL     OW30918   6.996   6.381   4.908  0.0952  0.2196  0.6890
 9833SOL    HW130919   6.944   6.454   4.942 -1.0290  0.0032 -0.4764
 9833SOL    HW230920   6.935   6.332   4.853  1.3104 -0.5795  0.0110
 9834SOL     OW30921   3.954   6.528   3.775  0.0051  0.0592 -0.1095
 9834SOL    HW130922   3.982   6.617   3.753 -1.0755  0.7195  1.1084
 9834SOL    HW230923   3.895   6.503   3.703 -2.3643  1.6542  1.1576
 9835SOL     OW30924   3.445   6.807   2.580  0.0655 -0.3145 -0.6478
 9835SOL    HW130925   3.527   6.823   2.532 -0.1281 -0.2223 -0.9500
 9835SOL    HW230926   3.378   6.853   2.529 -0.3365 -1.2229 -0.9487
 9836SOL     OW30927   2.962   3.166   2.854  0.1168 -0.2737 -0.5446
 9836SOL    HW130928   2.940   3.211   2.773 -1.2893 -1.5331 -0.9050
 9836SOL    HW230929   2.938   3.229   2.923  1.0361  0.6784 -1.0573
 9837SOL     OW30930   2.405   1.536   3.967  0.7575  0.1039  0.5001
 9837SOL    HW130931   2.320   1.582   3.970 -0.3950 -1.8131 -0.5947
 9837SOL    HW230932   2.431   1.542   3.875  1.7645  0.5747  0.8122
 9838SOL     OW30933   1.186   2.835   7.735  0.2534  0.1779  0.6771
 9838SOL    HW130934   1.212   2.878   7.817  1.9315  0.1618  0.2017
 9838SOL    HW230935   1.149   2.751   7.763  0.5098  0.3076  1.4354
 9839SOL     OW30936   5.895   4.057   3.571  0.3273  0.1639 -0.0949
 9839SOL    HW130937   5.953   4.131   3.552  0.4282  0.0550 -0.2097
 9839SOL    HW230938   5.939   4.011   3.643  1.8181 -1.4913 -1.9475
 9840SOL     OW30939   6.137   6.935   2.226  0.2169 -0.2103 -0.5135
 9840SOL    HW130940   6.172   6.922   2.314 -0.7431 -1.8492 -0.3362
 9840SOL    HW230941   6.042   6.946   2.240  0.2235  0.9592 -1.2465
 9841SOL     OW30942   4.285   6.843   4.853  0.4253  0.5591  0.0373
 9841SOL    HW130943   4.200   6.846   4.810  0.3460  0.6650  0.2008
 9841SOL    HW230944   4.267   6.868   4.944  0.4338 -0.5964  0.3722
 9842SOL     OW30945   7.077   2.031   2.057  0.0802  0.3446  0.0539
 9842SOL    HW130946   7.010   2.012   1.991  0.2777 -0.7285  0.1463
 9842SOL    HW230947   7.041   1.997   2.139 -0.1893  1.7240  0.5436
 9843SOL     OW30948   4.978   0.529   8.011  0.4495 -0.4919  0.5011
 9843SOL    HW130949   4.930   0.448   7.995 -1.5791  0.6125  0.6788
 9843SOL    HW230950   5.041   0.534   7.938 -1.4347 -0.7675 -1.2332
 9844SOL     OW30951   2.767   4.452   5.244 -0.2106  0.8588  0.5225
 9844SOL    HW130952   2.764   4.542   5.212 -1.1155  0.9164  0.7517
 9844SOL    HW230953   2.854   4.444   5.283  1.3191  0.5074 -2.6962
 9845SOL     OW30954   2.751   4.108   4.608 -0.1551 -0.3651 -0.0667
 9845SOL    HW130955   2.675   4.050   4.601  0.7419 -1.6223  0.2627
 9845SOL    HW230956   2.729   4.184   4.554 -1.1026 -1.2959 -1.0238
 9846SOL     OW30957   3.804   7.238   3.850  0.2383 -0.4701  0.2508
 9846SOL    HW130958   3.815   7.256   3.944  0.2480 -0.0836  0.1797
 9846SOL    HW230959   3.820   7.145   3.841 -0.8734 -0.7310  0.8065
 9847SOL     OW30960   7.497   6.630   1.128 -0.3566 -1.0601 -0.2395
 9847SOL    HW130961   7.484   6.653   1.219 -0.2274  0.5717 -0.6090
 9847SOL    HW230962   7.578   6.578   1.128  0.9899  0.9375  0.3229
 9848SOL     OW30963   0.735   7.691   1.870  0.3212  0.1764  0.0891
 9848SOL    HW130964   0.718   7.719   1.961  0.4831 -0.6592  0.3805
 9848SOL    HW230965   0.675   7.618   1.856  0.6153  0.0154 -0.3329
 9849SOL     OW30966   4.277   4.376   6.536  0.0683 -0.2361  0.0310
 9849SOL    HW130967   4.235   4.460   6.518  1.1197  0.3199  0.1095
 9849SOL    HW230968   4.211   4.326   6.585  0.0421  1.1788  1.4965
 9850SOL     OW30969   7.597   0.218   0.610  0.1205 -0.3103  0.7376
 9850SOL    HW130970   7.679   0.227   0.658  0.3834 -0.4880  0.3346
 9850SOL    HW230971   7.542   0.163   0.665 -0.2610  0.9607  1.6723
 9851SOL     OW30972   3.517   0.146   5.757 -0.1217 -0.2500 -0.3458
 9851SOL    HW130973   3.587   0.100   5.803  0.6702  0.2529 -1.0255
 9851SOL    HW230974   3.551   0.160   5.669 -1.7472 -1.5005 -1.2303
 9852SOL     OW30975   7.102   1.074   2.416  0.6422 -0.6316  0.0445
 9852SOL    HW130976   7.007   1.074   2.427  0.6023  1.7032  0.2123
 9852SOL    HW230977   7.126   1.166   2.411  2.9324 -1.1488  0.1277
 9853SOL     OW30978   6.441   1.646   5.596  0.4861 -0.7106  0.1257
 9853SOL    HW130979   6.485   1.638   5.512 -0.4824  0.4136 -0.5286
 9853SOL    HW230980   6.424   1.740   5.606 -2.7074 -1.1285 -0.2344
 9854SOL     OW30981   1.678   0.463   6.413  0.4190 -0.3650 -0.1177
 9854SOL    HW130982   1.649   0.529   6.350  0.3969  0.5515  0.8304
 9854SOL    HW230983   1.720   0.396   6.359  0.1425  0.2507 -1.1337
 9855SOL     OW30984   6.461   7.940   7.481  0.3257  0.0202  0.3944
 9855SOL    HW130985   6.554   7.960   7.470 -0.2362  2.6733 -0.2141
 9855SOL    HW230986   6.424   7.951   7.393 -0.9335  1.4562  1.0569
 9856SOL     OW30987   0.743   5.515   1.104 -0.1225 -1.0292  0.0255
 9856SOL    HW130988   0.797   5.538   1.179 -1.2744  1.0765  0.2594
 9856SOL    HW230989   0.780   5.564   1.031  0.1751 -2.0336 -0.5221
 9857SOL     OW30990   6.144   4.433   3.222 -0.0172 -0.5656  0.5274
 9857SOL    HW130991   6.206   4.464   3.287  0.6216 -1.8590  0.5716
 9857SOL    HW230992   6.133   4.340   3.242 -1.3101 -0.5508 -0.0143
 9858SOL     OW30993   0.367   5.895   6.487  0.3828 -0.0475  0.4044
 9858SOL    HW130994   0.458   5.865   6.493  0.4960  0.2500  0.2162
 9858SOL    HW230995   0.365   5.949   6.408  0.4065  1.1743  1.2055
 9859SOL     OW30996   1.428   7.693   3.710 -0.1688 -0.4893 -0.2086
 9859SOL    HW130997   1.422   7.726   3.800 -1.7592  2.3963 -1.2400
 9859SOL    HW230998   1.348   7.642   3.699 -1.2853  1.2654 -0.6642
 9860SOL     OW30999   7.685   6.059   6.500 -0.4201  0.4986 -0.4902
 9860SOL    HW131000   7.702   5.969   6.527  1.0423  0.6652 -0.7676
 9860SOL    HW231001   7.750   6.111   6.546  0.8839  1.0135 -2.7488
 9861SOL     OW31002   2.802   3.393   0.663 -0.3358 -0.5709  0.1945
 9861SOL    HW131003   2.739   3.321   0.673  0.8464 -1.6303  0.2603
 9861SOL    HW231004   2.749   3.466   0.631 -1.3217 -1.9609 -1.5774
 9862SOL     OW31005   2.187   4.690   2.948 -0.3113  0.7312  0.2230
 9862SOL    HW131006   2.178   4.644   3.032 -1.5180  0.0058 -0.2830
 9862SOL    HW231007   2.263   4.747   2.960  0.1121 -0.0657  1.4872
 9863SOL     OW31008   0.533   7.779   3.444  0.4773  0.7291 -0.5227
 9863SOL    HW131009   0.626   7.772   3.422  0.2713 -1.4388 -0.9467
 9863SOL    HW231010   0.490   7.798   3.360  0.5413  1.9984 -0.2814
 9864SOL     OW31011   0.574   7.679   2.705 -0.0622 -0.3499 -0.1240
 9864SOL    HW131012   0.486   7.707   2.729 -0.5229 -1.1671 -0.7942
 9864SOL    HW231013   0.631   7.750   2.735 -0.9423  0.1881  0.3195
 9865SOL     OW31014   5.204   5.681   3.188 -0.0737 -0.6117  0.1697
 9865SOL    HW131015   5.269   5.698   3.256 -0.8117 -0.8335  0.9602
 9865SOL    HW231016   5.120   5.698   3.231 -0.5109  1.2573 -1.2846
 9866SOL     OW31017   0.035   7.054   6.402  0.1008  0.2107 -0.5150
 9866SOL    HW131018   0.127   7.073   6.421  0.8377  0.1338 -3.4863
 9866SOL    HW231019   0.031   6.959   6.398 -0.4517  0.1606  0.9720
 9867SOL     OW31020   7.708   4.594   2.983 -0.1061 -0.2298  0.4101
 9867SOL    HW131021   7.702   4.576   3.076 -0.5139 -0.5456  0.3251
 9867SOL    HW231022   7.737   4.685   2.978 -2.3273  0.5678  0.8726
 9868SOL     OW31023   0.235   3.991   2.212 -0.2142  0.1875 -0.6345
 9868SOL    HW131024   0.153   4.037   2.230 -0.6609  0.0855 -2.2783
 9868SOL    HW231025   0.215   3.933   2.139  0.7798 -1.4536  0.3411
 9869SOL     OW31026   5.773   0.492   5.753 -0.1799  0.1933  0.0668
 9869SOL    HW131027   5.739   0.447   5.830  0.7895 -0.4554  0.1337
 9869SOL    HW231028   5.701   0.490   5.690 -0.3847 -0.8470  0.3174
 9870SOL     OW31029   7.801   7.699   7.656  0.2571 -0.5901  0.5677
 9870SOL    HW131030   7.718   7.745   7.658  0.7933  0.4030  1.2106
 9870SOL    HW231031   7.810   7.668   7.566 -1.0898 -1.2769  0.6510
 9871SOL     OW31032   4.947   5.834   6.360  0.1197 -0.0685 -0.4009
 9871SOL    HW131033   5.013   5.770   6.385 -0.2196 -0.1680  0.2762
 9871SOL    HW231034   4.905   5.858   6.442 -0.5196  0.1753 -0.7901
 9872SOL     OW31035   5.846   2.996   1.164 -0.0700 -0.0639  0.1382
 9872SOL    HW131036   5.768   2.940   1.170 -0.6601  0.7562  0.2718
 9872SOL    HW231037   5.830   3.067   1.227  0.6533  0.2814 -0.0504
 9873SOL     OW31038   4.850   1.958   1.146 -0.6121 -0.6218 -0.2271
 9873SOL    HW131039   4.895   1.874   1.142  2.5593  0.9258  0.0090
 9873SOL    HW231040   4.797   1.953   1.226  0.2342 -2.0487  0.2783
 9874SOL     OW31041   0.754   4.755   0.946  0.1107  0.4839 -0.4468
 9874SOL    HW131042   0.800   4.808   0.881 -0.9975  1.4580 -0.4602
 9874SOL    HW231043   0.701   4.817   0.995  2.3120  0.1018  2.7255
 9875SOL     OW31044   7.727   0.811   1.485 -0.6657 -0.5108 -0.0754
 9875SOL    HW131045   7.691   0.733   1.442  0.2781 -0.2819 -1.3482
 9875SOL    HW231046   7.804   0.780   1.532 -0.5371 -0.4249 -0.2276
 9876SOL     OW31047   4.151   7.041   1.342 -0.3391 -0.2694 -0.3373
 9876SOL    HW131048   4.078   6.988   1.310 -0.0459 -1.6886  1.1971
 9876SOL    HW231049   4.143   7.036   1.438  2.3262 -1.2940 -0.0920
 9877SOL     OW31050   7.694   2.171   7.015 -0.2638 -0.7085  0.7396
 9877SOL    HW131051   7.684   2.219   7.098  2.4035  2.0090 -0.3439
 9877SOL    HW231052   7.787   2.153   7.008 -0.2690 -0.0901 -2.0383
 9878SOL     OW31053   3.131   7.199   2.729  0.1391  0.1454  0.2978
 9878SOL    HW131054   3.110   7.292   2.732  1.0785  0.4204 -0.6429
 9878SOL    HW231055   3.051   7.155   2.756 -0.5486  1.2095  0.0639
 9879SOL     OW31056   5.960   2.478   2.368 -0.3090  0.1350 -0.5327
 9879SOL    HW131057   5.957   2.569   2.338  0.5966  0.1156 -0.7150
 9879SOL    HW231058   6.020   2.480   2.444 -1.0432 -0.1489  0.0625
 9880SOL     OW31059   0.588   2.388   3.595 -0.2625 -0.3448  0.7919
 9880SOL    HW131060   0.553   2.473   3.568 -1.4332 -0.7464  1.0108
 9880SOL    HW231061   0.647   2.363   3.524  0.3716  0.8034  0.8895
 9881SOL     OW31062   2.985   3.484   4.323  0.3097  0.1610  0.0052
 9881SOL    HW131063   3.024   3.399   4.302  1.2279  0.8829 -1.3572
 9881SOL    HW231064   3.048   3.548   4.289 -1.2850  1.3752 -0.7890
 9882SOL     OW31065   0.291   0.754   5.731  0.2553 -0.0268  0.2880
 9882SOL    HW131066   0.209   0.779   5.689 -0.5412 -1.2104  1.0718
 9882SOL    HW231067   0.301   0.818   5.802  1.7847  2.1959 -1.7605
 9883SOL     OW31068   7.228   7.332   5.842 -0.4220 -0.3045  0.1259
 9883SOL    HW131069   7.312   7.294   5.816 -1.2086 -0.8110 -1.8639
 9883SOL    HW231070   7.175   7.256   5.867 -0.1651  0.0544  1.8813
 9884SOL     OW31071   7.613   4.043   0.088 -0.2498  0.0674  0.3611
 9884SOL    HW131072   7.641   4.116   0.032  2.4711 -1.6372 -0.7236
 9884SOL    HW231073   7.664   3.968   0.057 -1.3327 -1.8336  2.8089
 9885SOL     OW31074   0.758   0.758   4.662 -0.2556 -0.0820 -0.4489
 9885SOL    HW131075   0.668   0.781   4.688 -0.1206 -0.5232  0.4562
 9885SOL    HW231076   0.749   0.677   4.613 -0.1365 -1.7356  2.0690
 9886SOL     OW31077   7.192   7.874   1.077  0.2309 -0.8601  0.6058
 9886SOL    HW131078   7.184   7.966   1.102  0.7710 -0.7078  0.2414
 9886SOL    HW231079   7.258   7.874   1.007 -0.1971 -1.4473  0.1913
 9887SOL     OW31080   2.424   4.938   3.433  1.2757 -0.7793  0.2559
 9887SOL    HW131081   2.448   4.930   3.525 -0.5715 -1.6498  0.7093
 9887SOL    HW231082   2.331   4.918   3.430  0.8593  1.0341 -1.5729
 9888SOL     OW31083   2.530   3.153   6.139  0.1134  0.5733 -0.7452
 9888SOL    HW131084   2.579   3.137   6.219 -0.6631 -0.2032 -0.4035
 9888SOL    HW231085   2.585   3.117   6.070  0.3184  0.2947 -0.4407
 9889SOL     OW31086   0.074   0.075   7.324 -0.2030  0.5802  0.0901
 9889SOL    HW131087   0.042  -0.006   7.283 -1.4369 -0.8039  3.3898
 9889SOL    HW231088   0.166   0.079   7.300 -0.5841 -0.6923 -1.8062
 9890SOL     OW31089   4.314   6.070   1.485 -0.4601  0.1846 -0.6139
 9890SOL    HW131090   4.290   6.074   1.392  0.6351  0.1522 -0.9107
 9890SOL    HW231091   4.342   5.980   1.499 -0.2469  0.2884 -0.3522
 9891SOL     OW31092   4.612   1.418   3.359  0.1047 -0.0308  0.4446
 9891SOL    HW131093   4.571   1.496   3.396 -0.2461  0.2255 -0.4669
 9891SOL    HW231094   4.544   1.352   3.361 -0.4141  0.4224 -1.1604
 9892SOL     OW31095   6.966   7.045   2.273 -0.0664  0.1491  0.2459
 9892SOL    HW131096   7.010   7.031   2.357  0.9695  1.0288 -0.1140
 9892SOL    HW231097   6.993   7.134   2.247 -1.5782  0.4762 -0.3042
 9893SOL     OW31098   4.546   0.327   7.510  0.5307  0.5396  0.2849
 9893SOL    HW131099   4.478   0.385   7.545 -0.0564  0.2335 -0.3129
 9893SOL    HW231100   4.622   0.343   7.565  0.5863  2.3414 -0.2440
 9894SOL     OW31101   6.863   6.510   1.776 -0.2201  0.4646 -0.4371
 9894SOL    HW131102   6.950   6.505   1.737  0.5512 -1.9048  1.3313
 9894SOL    HW231103   6.842   6.604   1.776  2.2732  1.1056 -1.0146
 9895SOL     OW31104   6.486   6.205   5.880 -0.1640 -0.7183  0.2008
 9895SOL    HW131105   6.527   6.264   5.943 -0.6493 -0.5619  0.3768
 9895SOL    HW231106   6.397   6.191   5.915  0.7667 -3.7696  1.6812
 9896SOL     OW31107   6.996   7.654   5.061  0.1667  0.1653 -0.1907
 9896SOL    HW131108   7.072   7.599   5.079  0.5829  0.3405 -1.2733
 9896SOL    HW231109   6.944   7.604   4.998  0.0389  0.5735 -0.4186
 9897SOL     OW31110   3.632   6.013   1.411 -0.0805  0.0880  0.2795
 9897SOL    HW131111   3.598   6.074   1.475  0.5563  0.8316 -0.0698
 9897SOL    HW231112   3.713   6.054   1.380  0.7376 -1.2710  0.5560
 9898SOL     OW31113   5.493   3.439   6.284 -0.0716 -0.1907  0.2990
 9898SOL    HW131114   5.401   3.421   6.263  0.3666 -1.9574 -0.2463
 9898SOL    HW231115   5.537   3.354   6.275  1.5388  0.5319  0.9967
 9899SOL     OW31116   1.234   6.744   5.150  0.3171  0.5437 -0.1681
 9899SOL    HW131117   1.312   6.793   5.176  1.0923 -0.6210 -0.2177
 9899SOL    HW231118   1.253   6.714   5.061  0.1740 -0.4356  0.1182
 9900SOL     OW31119   5.216   7.567   1.066  0.1813  0.4895 -0.3622
 9900SOL    HW131120   5.138   7.572   1.121  0.7233 -1.3843  0.6795
 9900SOL    HW231121   5.194   7.502   0.999  1.2259 -1.0235  0.7017
 9901SOL     OW31122   4.659   6.232   2.738  0.5426 -0.0233  0.3199
 9901SOL    HW131123   4.640   6.323   2.761  1.8894 -0.2712  2.7993
 9901SOL    HW231124   4.725   6.238   2.669 -0.5524  0.8296 -0.6971
 9902SOL     OW31125   7.918   4.854   4.069  0.7711 -0.3370  1.2733
 9902SOL    HW131126   7.944   4.857   4.161  0.5723  0.1228  1.3210
 9902SOL    HW231127   7.937   4.942   4.037 -1.2679  0.2200  1.4663
 9903SOL     OW31128   5.250   0.548   3.480 -0.2333 -0.1644  0.4376
 9903SOL    HW131129   5.246   0.500   3.562 -1.5320  0.9478  1.0728
 9903SOL    HW231130   5.209   0.491   3.416  1.7362 -1.4893  0.2713
 9904SOL     OW31131   3.382   6.941   5.191  0.2207  0.3950  0.2466
 9904SOL    HW131132   3.411   6.977   5.275 -1.8180  1.3806  0.5757
 9904SOL    HW231133   3.408   7.007   5.127 -1.3556  1.3375  0.5553
 9905SOL     OW31134   2.775   0.230   0.327 -0.1856 -0.7018  0.0046
 9905SOL    HW131135   2.868   0.245   0.343 -0.2564  0.2346 -0.4008
 9905SOL    HW231136   2.762   0.137   0.345  0.6066 -0.6140  1.1196
 9906SOL     OW31137   1.890   6.038   8.027  0.3289  0.2549  0.0391
 9906SOL    HW131138   1.832   6.062   7.955  0.2551 -0.5541 -0.1854
 9906SOL    HW231139   1.830   6.005   8.095  0.4608  0.1696  0.1150
 9907SOL     OW31140   1.569   6.567   3.028  0.0361  0.0789 -0.2780
 9907SOL    HW131141   1.657   6.590   3.059 -1.3241  3.5806  1.6678
 9907SOL    HW231142   1.574   6.475   3.005  3.9579 -0.0910  0.6292
 9908SOL     OW31143   1.043   3.345   3.323 -0.1697  0.1175 -0.1089
 9908SOL    HW131144   1.011   3.370   3.236  0.2159  0.7954 -0.0581
 9908SOL    HW231145   1.023   3.251   3.329  2.1404 -0.6167 -1.9886
 9909SOL     OW31146   4.539   6.397   4.530 -0.3243 -0.0546  0.2389
 9909SOL    HW131147   4.462   6.379   4.477 -1.7728  2.2239  1.4348
 9909SOL    HW231148   4.559   6.313   4.572 -2.5005 -0.5995  0.2982
 9910SOL     OW31149   7.700   5.287   4.514 -0.2161 -0.6675 -0.2906
 9910SOL    HW131150   7.718   5.204   4.469  2.7196 -0.6857  0.7506
 9910SOL    HW231151   7.755   5.351   4.469  0.4106 -0.0743  1.2569
 9911SOL     OW31152   2.357   0.317   2.900 -0.4793  0.1885 -0.0269
 9911SOL    HW131153   2.413   0.256   2.852 -2.5591 -1.4626 -0.5065
 9911SOL    HW231154   2.407   0.338   2.979  0.5581 -1.6610 -0.1367
 9912SOL     OW31155   3.961   8.000   6.417 -0.0729 -0.3329  0.5176
 9912SOL    HW131156   3.928   7.911   6.408  0.6847 -0.6068  0.3414
 9912SOL    HW231157   3.929   8.029   6.503 -0.1769 -0.8367  0.6533
 9913SOL     OW31158   3.210   7.012   6.474  0.0232  0.2389 -0.1237
 9913SOL    HW131159   3.209   7.009   6.570 -1.0482  0.5556 -0.1046
 9913SOL    HW231160   3.258   6.933   6.448  0.3863  0.1839  0.6722
 9914SOL     OW31161   6.197   3.239   3.919 -0.3694 -0.0738 -0.4785
 9914SOL    HW131162   6.268   3.204   3.973  0.8446 -0.4454 -2.2284
 9914SOL    HW231163   6.194   3.332   3.941  1.3528  0.1575 -1.0724
 9915SOL     OW31164   0.703   6.297   1.722  0.2320 -0.0787 -0.0230
 9915SOL    HW131165   0.792   6.263   1.721  0.2669 -0.0174  0.6877
 9915SOL    HW231166   0.682   6.313   1.629  0.7836 -0.5347 -0.2277
 9916SOL     OW31167   7.756   4.022   6.318  0.3092 -0.1910 -0.6379
 9916SOL    HW131168   7.732   3.933   6.341 -1.6378  0.3191 -0.4776
 9916SOL    HW231169   7.704   4.041   6.239 -0.7510  1.3712  0.3767
 9917SOL     OW31170   6.566   3.835   5.348 -0.2335 -0.1605 -0.2733
 9917SOL    HW131171   6.637   3.776   5.373  0.1891  0.6289  0.4172
 9917SOL    HW231172   6.595   3.876   5.266  0.8272  1.3208  0.8023
 9918SOL     OW31173   7.716   7.924   5.991  0.4960 -0.1276 -0.3353
 9918SOL    HW131174   7.689   7.931   5.900  1.4029  0.1218 -0.5960
 9918SOL    HW231175   7.635   7.914   6.040 -0.0748  0.8762 -1.0550
 9919SOL     OW31176   3.549   6.944   6.544  0.2321  0.3297 -0.4722
 9919SOL    HW131177   3.535   6.919   6.453 -0.0051 -0.1374 -0.3112
 9919SOL    HW231178   3.487   7.014   6.560 -0.4012 -0.2415 -0.3959
 9920SOL     OW31179   2.253   0.486   0.416 -0.1062 -0.7237  0.4570
 9920SOL    HW131180   2.288   0.573   0.394 -3.2257  0.5581  0.1114
 9920SOL    HW231181   2.235   0.445   0.331 -1.0204 -0.6587  0.6165
 9921SOL     OW31182   0.435   0.705   0.294 -0.0810  0.0750  0.1395
 9921SOL    HW131183   0.460   0.621   0.332 -1.3604 -0.3434  0.0973
 9921SOL    HW231184   0.385   0.749   0.363  2.1643  1.6641  0.8715
 9922SOL     OW31185   3.933   2.679   5.334  0.0547 -0.1631  0.0379
 9922SOL    HW131186   4.021   2.682   5.297 -0.1657 -0.2295 -0.4955
 9922SOL    HW231187   3.906   2.588   5.324  0.6986 -0.6540  2.0579
 9923SOL     OW31188   7.476   5.246   5.255  0.3700 -0.0766 -0.3861
 9923SOL    HW131189   7.554   5.276   5.302 -1.2803 -0.8898  3.1644
 9923SOL    HW231190   7.500   5.159   5.221  1.0812 -0.2355  0.4999
 9924SOL     OW31191   0.830   7.807   3.406  0.3477 -0.1295 -0.0097
 9924SOL    HW131192   0.854   7.736   3.347 -0.6610  0.0754 -0.6826
 9924SOL    HW231193   0.902   7.812   3.469  0.7264 -1.3195 -0.3423
 9925SOL     OW31194   5.030   2.865   3.594  0.4703  0.4184 -0.5634
 9925SOL    HW131195   5.080   2.783   3.599 -1.8887 -1.1105 -0.6840
 9925SOL    HW231196   5.023   2.894   3.685 -1.3923 -1.3358 -0.0595
 9926SOL     OW31197   0.499   2.073   0.313  0.3599 -0.6428  0.0531
 9926SOL    HW131198   0.457   2.082   0.228  1.0906  0.1245 -0.2414
 9926SOL    HW231199   0.482   2.156   0.357  1.4315 -0.3541 -0.0318
 9927SOL     OW31200   3.134   6.260   7.189 -0.4185 -0.1670 -0.0745
 9927SOL    HW131201   3.073   6.267   7.263  0.8622 -0.6888  1.0888
 9927SOL    HW231202   3.201   6.198   7.220 -0.0253 -0.6523 -1.8158
 9928SOL     OW31203   4.415   5.466   0.507  0.5509 -0.1004 -0.0129
 9928SOL    HW131204   4.407   5.374   0.482 -1.6232 -0.3551  1.3828
 9928SOL    HW231205   4.455   5.463   0.594 -0.1336  0.2207  0.3165
 9929SOL     OW31206   4.947   5.938   1.776  0.4305  0.2526 -0.0264
 9929SOL    HW131207   4.955   5.938   1.871 -1.1636  0.6128  0.1367
 9929SOL    HW231208   4.902   6.020   1.755  0.2507 -0.0838 -1.0309
 9930SOL     OW31209   0.719   6.836   1.095  0.8675 -0.1121 -0.3190
 9930SOL    HW131210   0.673   6.905   1.047  2.9748 -0.0649 -2.4865
 9930SOL    HW231211   0.742   6.876   1.179 -0.9435  0.5960 -0.1155
 9931SOL     OW31212   1.671   6.486   6.326 -0.5654  0.8992  0.3733
 9931SOL    HW131213   1.691   6.402   6.285  0.5588  0.3709  1.9268
 9931SOL    HW231214   1.716   6.551   6.272  0.7056  0.2360  0.5990
 9932SOL     OW31215   7.555   7.477   6.230 -0.5803  0.0396  0.1803
 9932SOL    HW131216   7.600   7.553   6.267  1.9225  0.2977 -2.9345
 9932SOL    HW231217   7.589   7.402   6.280  1.0620  0.5356 -0.1494
 9933SOL     OW31218   2.387   6.921   5.582 -0.4985  0.2428 -0.0837
 9933SOL    HW131219   2.382   6.985   5.511  1.2052  0.8268  0.2692
 9933SOL    HW231220   2.330   6.955   5.650  1.5855  2.3369  0.7593
 9934SOL     OW31221   4.714   0.718   5.312  0.1544  0.0923 -0.1586
 9934SOL    HW131222   4.716   0.698   5.406  0.6453  0.5027 -0.0787
 9934SOL    HW231223   4.625   0.748   5.295 -0.1328 -0.6214  0.0404
 9935SOL     OW31224   6.524   0.499   1.508  0.5657  0.3935 -0.0824
 9935SOL    HW131225   6.604   0.547   1.529  0.6194  0.2340  0.0813
 9935SOL    HW231226   6.553   0.409   1.491  0.5234  0.5249 -0.8711
 9936SOL     OW31227   3.219   3.993   5.055 -0.1961  0.0671  0.2661
 9936SOL    HW131228   3.262   3.917   5.017  1.9128  0.2691  1.9890
 9936SOL    HW231229   3.246   4.067   5.000 -0.8431 -0.1985 -0.4139
 9937SOL     OW31230   3.915   0.304   6.153 -0.1249  0.6064 -0.4761
 9937SOL    HW131231   3.849   0.249   6.195 -0.8762  1.2451 -0.8141
 9937SOL    HW231232   3.980   0.319   6.222 -0.3457  0.0209 -0.1298
 9938SOL     OW31233   5.144   7.222   1.937 -1.0266 -0.0862 -0.5339
 9938SOL    HW131234   5.153   7.127   1.938  0.9975  0.0754 -0.3149
 9938SOL    HW231235   5.125   7.243   1.845 -1.5857 -0.7042 -0.5648
 9939SOL     OW31236   0.975   6.129   4.035  0.0973  0.4579 -0.0750
 9939SOL    HW131237   0.985   6.034   4.047 -0.2755  0.4233 -0.0352
 9939SOL    HW231238   1.015   6.167   4.113  2.7095  0.4455 -1.3179
 9940SOL     OW31239   5.654   1.434   4.296 -0.2199 -0.7024 -0.2734
 9940SOL    HW131240   5.632   1.487   4.220 -0.4867 -0.5195 -0.0725
 9940SOL    HW231241   5.638   1.492   4.371  1.5975 -0.3255 -0.1341
 9941SOL     OW31242   3.763   0.917   3.414  0.0907 -0.4738 -0.6017
 9941SOL    HW131243   3.800   0.909   3.326  0.6727 -0.1843 -0.3859
 9941SOL    HW231244   3.730   1.007   3.417 -0.9203 -0.8150 -0.8958
 9942SOL     OW31245   3.407   6.970   7.056  0.9376 -0.1636 -0.3728
 9942SOL    HW131246   3.355   6.901   7.097 -2.6725  2.1835 -0.5873
 9942SOL    HW231247   3.394   6.958   6.962  0.8993  0.3657 -0.4391
 9943SOL     OW31248   0.333   4.465   1.140 -0.0340 -0.7391  0.4124
 9943SOL    HW131249   0.268   4.441   1.075  0.3485 -0.7200  0.0211
 9943SOL    HW231250   0.304   4.550   1.173 -0.5409 -1.0191  0.6827
 9944SOL     OW31251   1.724   2.005   1.433  0.2985  0.8340 -0.0313
 9944SOL    HW131252   1.691   2.039   1.517  1.5369  2.9424 -0.3379
 9944SOL    HW231253   1.716   2.079   1.373 -0.9832 -0.7763 -1.9447
 9945SOL     OW31254   1.740   5.253   0.116  0.2274 -0.6521 -0.1921
 9945SOL    HW131255   1.767   5.314   0.048 -1.9043 -0.3128 -0.8289
 9945SOL    HW231256   1.645   5.246   0.105 -0.1467 -0.9273  2.4595
 9946SOL     OW31257   5.336   3.385   4.223 -0.1129 -0.4292  0.3272
 9946SOL    HW131258   5.257   3.334   4.203 -1.8740  1.5277  1.8424
 9946SOL    HW231259   5.358   3.361   4.313  1.0000 -0.8753 -0.0476
 9947SOL     OW31260   7.376   5.730   7.699 -0.1419 -0.1897  0.0538
 9947SOL    HW131261   7.333   5.794   7.642  0.6249 -0.2156 -0.5609
 9947SOL    HW231262   7.401   5.658   7.642  0.0892 -0.4939  0.5274
 9948SOL     OW31263   0.695   2.003   5.024  0.1572 -0.0937  1.1421
 9948SOL    HW131264   0.682   1.911   5.000  2.0835 -0.0376 -0.4097
 9948SOL    HW231265   0.747   1.999   5.104  3.0705 -0.5164 -0.6160
 9949SOL     OW31266   0.466   5.046   4.091 -0.5349 -0.5997 -0.2508
 9949SOL    HW131267   0.405   5.094   4.147  0.5737 -0.0771  0.5607
 9949SOL    HW231268   0.489   4.968   4.142  1.2689  0.3827  0.5464
 9950SOL     OW31269   5.189   3.900   2.755  0.4075  0.5800 -0.2163
 9950SOL    HW131270   5.268   3.850   2.777 -0.3528 -0.5584  0.0378
 9950SOL    HW231271   5.120   3.834   2.751 -0.6557  1.6405  0.1967
 9951SOL     OW31272   6.602   3.210   6.328 -0.5820 -0.4374 -0.3589
 9951SOL    HW131273   6.683   3.162   6.309  0.2808  0.4314  0.8829
 9951SOL    HW231274   6.572   3.173   6.411 -1.0996 -0.3126 -0.4923
 9952SOL     OW31275   4.488   1.349   2.563  0.1388 -0.0482 -0.1767
 9952SOL    HW131276   4.414   1.321   2.617  1.5678 -1.8254  0.9946
 9952SOL    HW231277   4.531   1.417   2.614 -0.6281  0.9780 -0.8533
 9953SOL     OW31278   4.933   7.152   5.163 -0.3430  0.3699 -0.1661
 9953SOL    HW131279   4.849   7.151   5.210 -1.1889  2.2654 -1.5235
 9953SOL    HW231280   4.910   7.121   5.075  0.4283  0.7039 -0.4851
 9954SOL     OW31281   3.719   1.763   0.833 -0.1317 -0.3366 -0.4906
 9954SOL    HW131282   3.629   1.784   0.858  0.7140  0.5138  2.1632
 9954SOL    HW231283   3.734   1.813   0.753 -1.8816 -0.2247 -0.7936
 9955SOL     OW31284   7.886   4.402   0.183  0.0502  0.1171 -0.1627
 9955SOL    HW131285   7.915   4.320   0.143 -0.3260 -0.7254  1.2253
 9955SOL    HW231286   7.906   4.392   0.276  0.8843  2.0091 -0.0863
 9956SOL     OW31287   1.771   2.450   0.801  0.3382 -0.6026 -0.4756
 9956SOL    HW131288   1.787   2.461   0.707 -3.1897  0.5422 -1.0718
 9956SOL    HW231289   1.715   2.373   0.807 -1.5815  0.7685  0.3273
 9957SOL     OW31290   1.630   2.003   6.757  0.2553  0.0691 -0.6909
 9957SOL    HW131291   1.700   2.069   6.755  0.1594  0.4169  2.5032
 9957SOL    HW231292   1.669   1.928   6.802 -1.3576  0.3076  1.2480
 9958SOL     OW31293   8.026   7.746   4.291  0.2345  0.4436  0.4951
 9958SOL    HW131294   7.989   7.702   4.214  1.0846  2.0131 -0.8905
 9958SOL    HW231295   8.015   7.840   4.272  0.9630  0.8788  2.0603
 9959SOL     OW31296   0.881   5.491   0.575  0.4006 -0.6904  0.1365
 9959SOL    HW131297   0.808   5.524   0.523  1.0629  1.1256  0.2577
 9959SOL    HW231298   0.856   5.509   0.666  1.5785  1.4183  0.1155
 9960SOL     OW31299   2.592   0.652   4.136  0.3429  0.7732 -0.5296
 9960SOL    HW131300   2.500   0.641   4.162  1.0313 -0.8925  1.5069
 9960SOL    HW231301   2.622   0.563   4.118  1.4939  1.3284 -1.4289
 9961SOL     OW31302   3.919   3.390   1.512 -0.5400 -0.5079 -0.2456
 9961SOL    HW131303   3.910   3.457   1.445 -0.5481 -0.9984 -0.7468
 9961SOL    HW231304   3.830   3.377   1.545 -0.4316  0.2175  0.3450
 9962SOL     OW31305   0.052   4.532   3.259 -0.0395 -0.1665  0.8057
 9962SOL    HW131306   0.068   4.445   3.224  1.5085 -0.1139  1.3040
 9962SOL    HW231307   0.093   4.591   3.196 -0.6968  0.1810  0.6964
 9963SOL     OW31308   0.780   1.783   1.834  0.0726 -0.7038  0.1877
 9963SOL    HW131309   0.805   1.736   1.914  0.4591 -2.0306 -0.6825
 9963SOL    HW231310   0.733   1.860   1.866  1.6924 -0.2803  1.7498
 9964SOL     OW31311   1.538   0.600   6.955 -0.0542  0.0135  0.2567
 9964SOL    HW131312   1.480   0.537   6.912  2.0739 -0.2041 -2.5310
 9964SOL    HW231313   1.620   0.552   6.969  1.2144  1.7548 -0.8191
 9965SOL     OW31314   5.362   5.254   7.757 -0.4458 -0.3494 -0.4273
 9965SOL    HW131315   5.268   5.268   7.745 -0.7739 -1.2685  0.9277
 9965SOL    HW231316   5.403   5.312   7.693 -1.9644 -1.5303 -2.6210
 9966SOL     OW31317   1.516   7.953   1.479  0.1181  0.1061  0.0311
 9966SOL    HW131318   1.456   7.884   1.506  0.4188 -0.5030 -0.7959
 9966SOL    HW231319   1.530   7.937   1.385  0.7403  0.8738 -0.0212
 9967SOL     OW31320   7.584   3.505   6.436  0.0927  0.3887 -0.3839
 9967SOL    HW131321   7.566   3.458   6.354 -0.5228  1.4921 -0.9034
 9967SOL    HW231322   7.525   3.464   6.500  1.7462 -1.6057 -0.0336
 9968SOL     OW31323   0.529   7.512   1.816 -0.0184 -0.1004  0.4750
 9968SOL    HW131324   0.469   7.441   1.839  0.6608 -0.4582  1.1983
 9968SOL    HW231325   0.533   7.510   1.721  0.5028 -1.4831  0.4967
 9969SOL     OW31326   2.834   1.586   6.427  0.1905  0.4503  0.3174
 9969SOL    HW131327   2.916   1.593   6.475 -0.0303  2.6829  0.4781
 9969SOL    HW231328   2.851   1.630   6.343  0.0461 -1.8162 -0.9700
 9970SOL     OW31329   5.867   3.622   7.897 -0.1441  0.4289  0.3781
 9970SOL    HW131330   5.943   3.619   7.839 -0.5433 -0.0714 -0.1262
 9970SOL    HW231331   5.904   3.616   7.985  0.3132 -1.5463  0.0862
 9971SOL     OW31332   4.166   5.747   0.760  0.4144 -0.1741 -0.1400
 9971SOL    HW131333   4.188   5.684   0.690 -1.2981 -0.5604 -0.3633
 9971SOL    HW231334   4.211   5.827   0.735  1.4194 -0.8734 -0.6447
 9972SOL     OW31335   0.537   6.514   0.326 -0.3193  0.0877 -0.0541
 9972SOL    HW131336   0.623   6.547   0.352 -0.6212 -0.2738  1.5202
 9972SOL    HW231337   0.519   6.555   0.241  1.2457  0.4235 -0.2403
 9973SOL     OW31338   2.072   6.591   5.539  0.3898 -0.2416 -0.7439
 9973SOL    HW131339   2.111   6.534   5.473  0.3393 -0.1047 -0.8945
 9973SOL    HW231340   2.028   6.659   5.488 -0.6726 -0.7940 -0.5977
 9974SOL     OW31341   7.761   1.306   1.637 -0.5415 -0.3337 -0.0289
 9974SOL    HW131342   7.767   1.255   1.556 -0.6199 -0.2258 -0.1035
 9974SOL    HW231343   7.845   1.292   1.680  0.6810  1.9083 -1.5035
 9975SOL     OW31344   6.476   1.034   4.704 -0.0887  0.3586 -0.3209
 9975SOL    HW131345   6.382   1.016   4.698  0.0099  0.2849 -2.2032
 9975SOL    HW231346   6.482   1.117   4.751 -1.0238 -0.1370  0.7203
 9976SOL     OW31347   0.309   7.597   2.915 -0.5819 -0.0980  0.2738
 9976SOL    HW131348   0.317   7.516   2.965 -0.0445 -0.2612 -0.0612
 9976SOL    HW231349   0.229   7.638   2.947 -0.2269 -0.1783  1.2818
 9977SOL     OW31350   4.537   0.896   2.514 -0.0984  0.3399  0.1676
 9977SOL    HW131351   4.461   0.855   2.474  1.2617 -2.1379 -0.0598
 9977SOL    HW231352   4.537   0.986   2.479 -2.6090  0.2687 -0.1574
 9978SOL     OW31353   3.887   2.390   0.242 -0.1498  0.3202  0.0801
 9978SOL    HW131354   3.972   2.400   0.200 -0.0460  0.4605  0.3242
 9978SOL    HW231355   3.831   2.453   0.195  0.2849  1.4410  1.0064
 9979SOL     OW31356   5.771   6.687   4.755 -0.0940  0.1645 -0.4484
 9979SOL    HW131357   5.756   6.635   4.834 -0.1145 -0.1846 -0.6799
 9979SOL    HW231358   5.866   6.695   4.749 -0.1125  1.1753  0.2413
 9980SOL     OW31359   0.183   1.511   3.908 -0.5831 -0.2884 -0.5455
 9980SOL    HW131360   0.130   1.464   3.843 -1.4241 -0.5890  0.3324
 9980SOL    HW231361   0.148   1.600   3.907  0.7619  0.2711 -1.9392
 9981SOL     OW31362   3.220   6.581   4.563  1.0697  0.2886 -0.6350
 9981SOL    HW131363   3.284   6.510   4.572  2.0893  1.2704  0.2117
 9981SOL    HW231364   3.273   6.660   4.552  0.0003  1.1699  0.3031
 9982SOL     OW31365   0.404   0.387   0.979  0.4032  0.0419 -0.4131
 9982SOL    HW131366   0.429   0.372   1.070  1.6182 -1.6400 -0.9605
 9982SOL    HW231367   0.387   0.299   0.944 -1.7162  0.7629 -1.3856
 9983SOL     OW31368   3.975   0.649   4.955 -0.3347  0.0501  0.0749
 9983SOL    HW131369   3.972   0.567   5.005  1.5802 -0.4843 -0.5757
 9983SOL    HW231370   3.911   0.637   4.885  1.2310 -1.7571 -1.1542
 9984SOL     OW31371   3.357   6.511   5.200 -0.7019 -0.0266  0.1715
 9984SOL    HW131372   3.263   6.524   5.213 -0.3317  0.4367  3.0818
 9984SOL    HW231373   3.395   6.597   5.214  0.2178 -0.3029 -0.5296
 9985SOL     OW31374   4.683   7.188   4.991  0.8564 -0.1408  0.0628
 9985SOL    HW131375   4.721   7.229   4.913 -0.4807  2.0204  0.4351
 9985SOL    HW231376   4.591   7.216   4.990 -0.3434 -3.5925  0.1725
 9986SOL     OW31377   2.460   4.485   4.375  0.0807  0.2677  0.5550
 9986SOL    HW131378   2.527   4.426   4.339 -1.5127 -0.7887 -0.8070
 9986SOL    HW231379   2.499   4.572   4.368  2.1628 -0.4907  1.8319
 9987SOL     OW31380   0.375   2.513   3.773  0.1683 -0.0787  0.4080
 9987SOL    HW131381   0.381   2.556   3.858  0.8588 -0.2822  0.4667
 9987SOL    HW231382   0.463   2.520   3.736 -0.6308  2.2032 -1.3780
 9988SOL     OW31383   6.780   1.156   5.494  0.0017  0.0557 -0.1930
 9988SOL    HW131384   6.835   1.083   5.522  0.4367  0.6846  0.6339
 9988SOL    HW231385   6.714   1.164   5.563 -1.1451 -0.6918 -1.1713
 9989SOL     OW31386   1.407   6.221   0.278 -0.4836 -0.2322 -0.6490
 9989SOL    HW131387   1.377   6.132   0.263  1.8362 -1.0335 -1.0018
 9989SOL    HW231388   1.384   6.268   0.198 -1.1564 -0.6606 -0.7148
 9990SOL     OW31389   3.854   3.452   4.820 -0.0555  0.1871  0.3620
 9990SOL    HW131390   3.759   3.441   4.818 -0.0399 -0.6361 -3.4526
 9990SOL    HW231391   3.887   3.368   4.852 -0.5501  0.5609  1.9403
 9991SOL     OW31392   7.088   0.438   5.615  0.2731  0.2742 -0.4476
 9991SOL    HW131393   7.180   0.455   5.632  0.5584 -2.3273  1.0759
 9991SOL    HW231394   7.085   0.413   5.522  0.8496  1.6344 -0.8522
 9992SOL     OW31395   7.951   6.074   6.947  0.0768 -0.5126  0.2332
 9992SOL    HW131396   7.908   6.158   6.958  1.2210 -0.0041  1.1034
 9992SOL    HW231397   7.899   6.028   6.881 -1.5371  0.2031  0.9550
 9993SOL     OW31398   7.265   3.373   4.301 -0.4512  0.2902  0.2609
 9993SOL    HW131399   7.279   3.278   4.309 -2.7112 -0.1137  0.1958
 9993SOL    HW231400   7.335   3.412   4.353 -0.2441 -1.4654  1.4064
 9994SOL     OW31401   1.114   5.156   5.899 -0.1034 -0.2412 -0.3176
 9994SOL    HW131402   1.089   5.134   5.809  0.7695 -0.5279 -0.5052
 9994SOL    HW231403   1.167   5.081   5.927 -2.2899 -1.3076  1.2946
 9995SOL     OW31404   6.584   0.913   7.407 -0.1946  0.1522  0.5933
 9995SOL    HW131405   6.587   0.821   7.382 -3.8761  0.1072 -0.3115
 9995SOL    HW231406   6.576   0.960   7.324  0.7168  1.2398  1.0932
 9996SOL     OW31407   3.443   6.075   0.478  0.0565  0.2480 -0.4137
 9996SOL    HW131408   3.476   6.013   0.543  0.8807 -1.1886 -2.1193
 9996SOL    HW231409   3.399   6.021   0.412 -0.1354  1.5688 -1.4266
 9997SOL     OW31410   6.290   3.894   4.828 -0.0912  0.2554 -0.4607
 9997SOL    HW131411   6.329   3.831   4.767  0.3381 -0.0707  0.1435
 9997SOL    HW231412   6.309   3.858   4.915 -0.4976  0.8348 -0.1286
 9998SOL     OW31413   7.574   3.598   5.241  0.4056  0.5657  0.5650
 9998SOL    HW131414   7.618   3.551   5.312  1.9709  0.9855 -0.0801
 9998SOL    HW231415   7.511   3.655   5.285 -0.9438 -1.4655  1.4129
 9999SOL     OW31416   3.042   3.609   5.584 -0.6492  0.2141 -0.2555
 9999SOL    HW131417   2.966   3.550   5.582 -0.6158  0.1822 -0.5837
 9999SOL    HW231418   3.085   3.589   5.667 -0.9117  0.1209 -0.1379
10000SOL     OW31419   5.972   3.650   6.845 -0.2324 -0.1755  0.5217
10000SOL    HW131420   5.903   3.661   6.910  0.7793  0.2885  1.5412
10000SOL    HW231421   6.039   3.715   6.869  1.2072 -1.5595  0.4210
10001SOL     OW31422   0.320   5.503   1.596  0.4178  0.0400  0.1163
10001SOL    HW131423   0.252   5.562   1.629 -0.3631  0.1858 -1.6322
10001SOL    HW231424   0.375   5.486   1.672  0.7937  3.1425  0.6846
10002SOL     OW31425   2.883   1.823   6.287  0.3752  0.2343 -0.4035
10002SOL    HW131426   2.793   1.851   6.303  0.5602  1.1320 -0.8890
10002SOL    HW231427   2.899   1.843   6.195  1.3589  0.9146 -0.1058
10003SOL     OW31428   4.723   5.794   3.496  0.2330 -0.4747 -0.3809
10003SOL    HW131429   4.659   5.839   3.441  0.6458 -1.9151 -2.1174
10003SOL    HW231430   4.714   5.836   3.582 -0.2109  2.0805 -1.5822
10004SOL     OW31431   4.781   6.554   3.458  0.1738  0.1503  0.4988
10004SOL    HW131432   4.686   6.558   3.449  0.2092  0.4945  0.2281
10004SOL    HW231433   4.803   6.627   3.516  0.2631  0.0076  0.6443
10005SOL     OW31434   3.391   5.980   4.929 -0.0136  0.3351 -0.2748
10005SOL    HW131435   3.352   6.067   4.930  0.1871  0.4891  2.6530
10005SOL    HW231436   3.457   5.984   4.859  0.5630  2.8182  0.3210
10006SOL     OW31437   5.991   5.036   3.129  0.2818  0.6450 -0.4247
10006SOL    HW131438   5.963   5.125   3.107  0.6914  0.9329  0.1821
10006SOL    HW231439   6.044   5.047   3.208 -0.7872 -0.2855  0.4682
10007SOL     OW31440   3.891   3.372   5.617  0.0611 -0.1343  0.2528
10007SOL    HW131441   3.853   3.371   5.705  2.1579 -1.8918  1.2134
10007SOL    HW231442   3.816   3.361   5.558 -1.1320 -1.4082  1.9385
10008SOL     OW31443   3.026   0.189   0.409 -0.0041  0.3853 -0.5884
10008SOL    HW131444   3.076   0.127   0.357 -1.5096  0.6030 -2.3858
10008SOL    HW231445   3.091   0.228   0.468  1.3377 -1.4260 -0.7782
10009SOL     OW31446   7.961   5.620   5.587  0.0054 -0.9344 -0.3773
10009SOL    HW131447   8.017   5.683   5.631 -0.1669 -0.6034 -0.6317
10009SOL    HW231448   7.970   5.640   5.494  0.8322 -2.0035 -0.5566
10010SOL     OW31449   0.864   5.208   3.083  0.7822 -0.5318 -0.0332
10010SOL    HW131450   0.950   5.174   3.057 -0.0421 -0.0339 -4.1128
10010SOL    HW231451   0.853   5.287   3.031 -1.6645  0.1379  1.3500
10011SOL     OW31452   1.359   4.955   0.833 -0.6070  0.5918  0.9837
10011SOL    HW131453   1.295   4.962   0.763  1.1809  1.6133 -0.6313
10011SOL    HW231454   1.374   4.861   0.843 -0.4216  0.4450 -0.4938
10012SOL     OW31455   6.303   3.623   2.628 -0.0906 -0.2380 -0.0937
10012SOL    HW131456   6.317   3.532   2.602  0.6430 -0.1173 -0.1619
10012SOL    HW231457   6.220   3.648   2.588 -0.2747 -0.8652 -0.1037
10013SOL     OW31458   4.930   3.725   1.619 -0.5396  0.1588 -0.0875
10013SOL    HW131459   4.916   3.737   1.713 -1.2454  1.0159 -0.2837
10013SOL    HW231460   4.899   3.637   1.601  1.5782 -0.8477  0.8347
10014SOL     OW31461   2.725   6.945   6.653  0.1427 -0.1922  0.1494
10014SOL    HW131462   2.775   6.943   6.572  1.9018  1.6712  1.0915
10014SOL    HW231463   2.655   7.008   6.636  0.4943  0.1784  0.0600
10015SOL     OW31464   7.740   5.371   2.754  0.0366  0.3580 -0.3954
10015SOL    HW131465   7.713   5.432   2.684 -0.6703  1.5214  0.8453
10015SOL    HW231466   7.698   5.289   2.731  0.6078  0.4384 -1.8572
10016SOL     OW31467   5.862   5.052   1.986 -0.6681 -0.0546 -0.0386
10016SOL    HW131468   5.933   5.108   1.956  0.1546 -1.0212  0.0464
10016SOL    HW231469   5.810   5.036   1.908 -0.7962  0.6429 -0.1054
10017SOL     OW31470   1.262   8.048   5.779  0.1197  0.4946 -0.6770
10017SOL    HW131471   1.253   7.998   5.698 -0.3165  2.4734 -1.9174
10017SOL    HW231472   1.226   8.134   5.758  2.4923  1.9578  0.7393
10018SOL     OW31473   7.736   0.523   2.199 -0.4925 -0.5475 -0.0604
10018SOL    HW131474   7.763   0.559   2.115 -0.7253  2.8635  1.1559
10018SOL    HW231475   7.643   0.544   2.206 -0.8217 -2.0610  0.4821
10019SOL     OW31476   6.110   5.885   1.454  0.4266  0.9756  0.1560
10019SOL    HW131477   6.023   5.844   1.447  1.3907 -1.4776  1.2510
10019SOL    HW231478   6.112   5.922   1.542  0.3691  1.4055 -0.0197
10020SOL     OW31479   2.452   5.783   7.863  0.0209 -0.4217 -0.2071
10020SOL    HW131480   2.414   5.702   7.829 -2.0998  0.2499  0.3905
10020SOL    HW231481   2.418   5.790   7.953  0.8606  0.6865  0.0457
10021SOL     OW31482   4.178   1.671   0.017 -0.5195 -0.2980 -0.2072
10021SOL    HW131483   4.122   1.740   0.053 -0.4318  0.3569 -1.3056
10021SOL    HW231484   4.127   1.631  -0.053 -0.0820 -0.4962 -0.4198
10022SOL     OW31485   7.345   5.199   7.687  0.1112 -0.1504  0.1642
10022SOL    HW131486   7.279   5.249   7.734  0.3745  0.4169 -0.0613
10022SOL    HW231487   7.405   5.265   7.652  1.3364 -0.6865  1.1620
10023SOL     OW31488   0.844   1.530   7.605 -0.3609 -0.3114 -0.4118
10023SOL    HW131489   0.759   1.520   7.647  0.0171  0.7233  0.6684
10023SOL    HW231490   0.829   1.505   7.514 -1.1544 -2.8353  0.3414
10024SOL     OW31491   0.135   3.312   5.590  0.1479 -0.1444  0.1802
10024SOL    HW131492   0.153   3.285   5.500  3.3329  2.9742 -0.3264
10024SOL    HW231493   0.054   3.362   5.585  0.3972  0.1530 -0.9898
10025SOL     OW31494   7.941   6.040   1.837  0.3276  0.3965  0.0931
10025SOL    HW131495   7.868   6.090   1.874  0.3534 -0.9299  2.1532
10025SOL    HW231496   8.019   6.080   1.876  0.4559 -0.1862  0.4471
10026SOL     OW31497   2.663   0.407   3.861  0.5417 -0.3067  0.1406
10026SOL    HW131498   2.634   0.388   3.950  0.1768  0.3787  0.1771
10026SOL    HW231499   2.724   0.337   3.839 -0.2480 -1.1227  0.5079
10027SOL     OW31500   6.252   6.627   3.324 -0.7066 -0.2819 -0.3008
10027SOL    HW131501   6.262   6.628   3.229  0.7379 -0.5168 -0.1692
10027SOL    HW231502   6.229   6.717   3.347 -2.5278 -0.5282 -0.9821
10028SOL     OW31503   1.153   7.626   2.119  0.0940  0.2442  0.0263
10028SOL    HW131504   1.152   7.644   2.025 -1.7992  1.6726  0.2468
10028SOL    HW231505   1.119   7.706   2.159  0.7567 -0.3648  1.9367
10029SOL     OW31506   6.056   6.759   4.061  0.0384  0.1688  0.1201
10029SOL    HW131507   6.057   6.698   4.135 -0.6015 -4.6457 -3.3711
10029SOL    HW231508   6.133   6.814   4.075  0.0513 -0.5892  4.1571
10030SOL     OW31509   0.256   4.141   3.072 -0.2372  0.1711 -0.5251
10030SOL    HW131510   0.322   4.116   3.137  0.4704  0.9516 -0.9176
10030SOL    HW231511   0.180   4.086   3.091 -0.8608  1.8501  2.3482
10031SOL     OW31512   4.237   3.130   2.143 -0.5393 -0.0767  0.1651
10031SOL    HW131513   4.260   3.077   2.219  0.8784 -0.2374 -0.3357
10031SOL    HW231514   4.179   3.074   2.091 -0.2385 -0.5772  0.3623
10032SOL     OW31515   4.652   3.998   4.486 -0.4681 -0.3015 -0.3819
10032SOL    HW131516   4.576   3.940   4.485  0.8302 -2.0663 -1.3026
10032SOL    HW231517   4.628   4.067   4.547 -2.9760 -0.5555 -0.9782
10033SOL     OW31518   1.415   4.280   1.919 -0.0471  0.2358  0.3143
10033SOL    HW131519   1.374   4.195   1.904  1.1497 -0.1813 -0.6914
10033SOL    HW231520   1.401   4.328   1.838  1.6416 -0.0008 -0.1367
10034SOL     OW31521   7.288   3.670   5.340  0.0819  0.3339  0.1247
10034SOL    HW131522   7.303   3.698   5.430 -0.2197  1.3266 -0.1220
10034SOL    HW231523   7.226   3.598   5.348 -0.8620  1.1724  0.6589
10035SOL     OW31524   3.323   1.164   4.179  0.2582 -0.3844 -0.2439
10035SOL    HW131525   3.417   1.160   4.196 -0.0079  1.4122  2.2431
10035SOL    HW231526   3.286   1.089   4.226  0.3744 -0.9825 -1.0692
10036SOL     OW31527   2.478   0.772   7.770  0.7618  0.1015  0.1221
10036SOL    HW131528   2.430   0.845   7.809 -1.1854 -1.9741  1.9326
10036SOL    HW231529   2.469   0.785   7.675 -4.5410 -0.5835  0.2026
10037SOL     OW31530   4.198   3.158   1.306  0.3420 -0.2487  0.1973
10037SOL    HW131531   4.172   3.227   1.245  2.0310  0.1683 -0.1026
10037SOL    HW231532   4.131   3.159   1.374 -1.5418 -0.6442 -1.5417
10038SOL     OW31533   0.164   4.386   2.728 -0.2773  0.0281 -0.1568
10038SOL    HW131534   0.241   4.387   2.784 -1.0357  0.4481  0.9095
10038SOL    HW231535   0.098   4.436   2.777 -1.6580 -1.4629 -0.4251
10039SOL     OW31536   2.328   5.057   4.412 -0.4580 -0.0043  0.3703
10039SOL    HW131537   2.255   5.030   4.467 -0.3756 -1.8649 -0.3488
10039SOL    HW231538   2.304   5.029   4.324  1.3032 -1.1508  0.1985
10040SOL     OW31539   6.725   3.872   6.078  0.2799 -0.1376 -0.0506
10040SOL    HW131540   6.700   3.945   6.020 -0.8042  0.4798  1.1524
10040SOL    HW231541   6.669   3.882   6.154  2.7003 -0.0190  1.8386
10041SOL     OW31542   3.673   2.942   0.426  0.0718  0.4752  0.3380
10041SOL    HW131543   3.669   2.993   0.345 -1.5913  1.8740  1.2308
10041SOL    HW231544   3.590   2.893   0.427  0.1214  0.3932  1.1305
10042SOL     OW31545   4.136   7.732   3.771  0.9537  0.2791  0.2993
10042SOL    HW131546   4.054   7.768   3.736 -0.4299 -2.2108  0.7872
10042SOL    HW231547   4.198   7.741   3.699 -0.5456 -0.3706 -1.1486
10043SOL     OW31548   4.937   5.465   7.190  0.5688  0.1387  0.4114
10043SOL    HW131549   4.873   5.399   7.216  1.8110 -0.6833  1.5183
10043SOL    HW231550   4.894   5.515   7.121 -0.2311 -2.1368 -0.8199
10044SOL     OW31551   4.108   0.354   6.919 -0.4972 -0.0954 -0.0134
10044SOL    HW131552   4.143   0.301   6.990 -1.4971 -2.7180 -1.3291
10044SOL    HW231553   4.013   0.345   6.927 -0.6390  0.2753 -1.1447
10045SOL     OW31554   2.275   8.005   0.723  0.1678 -0.2228  0.2956
10045SOL    HW131555   2.236   7.918   0.726  1.0400 -0.8360 -2.7589
10045SOL    HW231556   2.289   8.022   0.630  3.2985  1.6494  0.9466
10046SOL     OW31557   4.954   2.560   6.250 -0.4454 -0.6285 -0.4139
10046SOL    HW131558   4.859   2.570   6.242 -0.3384  0.4585 -0.4537
10046SOL    HW231559   4.990   2.644   6.220  0.5395 -1.1053 -0.6083
10047SOL     OW31560   3.249   3.869   2.040 -0.2634 -0.0404  0.3816
10047SOL    HW131561   3.205   3.933   1.984 -0.2553 -1.7158 -1.6535
10047SOL    HW231562   3.252   3.789   1.988  3.6747 -0.5391  1.0047
10048SOL     OW31563   3.811   3.802   6.759  0.0317 -0.5204 -0.0565
10048SOL    HW131564   3.772   3.734   6.706 -0.1700 -0.4338 -0.0186
10048SOL    HW231565   3.882   3.758   6.807  0.6906 -0.4413 -0.9439
10049SOL     OW31566   6.941   0.649   3.903  0.3760  0.1220 -0.1900
10049SOL    HW131567   6.889   0.618   3.977  0.7143  1.0717  0.4663
10049SOL    HW231568   6.877   0.680   3.839  0.1104  2.1617  0.9997
10050SOL     OW31569   1.118   1.816   0.111 -0.1340  0.0841 -0.8392
10050SOL    HW131570   1.064   1.737   0.099 -0.1863  0.0726 -0.5294
10050SOL    HW231571   1.075   1.882   0.058  0.1599 -0.2126 -1.4562
10051SOL     OW31572   7.665   2.806   5.478 -0.2198 -0.6590 -0.5760
10051SOL    HW131573   7.608   2.743   5.434 -0.4183  0.3528 -1.8242
10051SOL    HW231574   7.746   2.804   5.427 -0.4029  0.4437 -0.9311
10052SOL     OW31575   3.732   3.560   5.162  0.4207 -0.6778 -0.0056
10052SOL    HW131576   3.644   3.559   5.200  1.0147 -0.0741  1.4366
10052SOL    HW231577   3.721   3.601   5.076 -0.4916  0.6830  0.7368
10053SOL     OW31578   7.798   3.035   5.655  0.4153 -0.4040  0.4113
10053SOL    HW131579   7.769   2.972   5.589  0.0512  0.0082  0.1724
10053SOL    HW231580   7.756   3.117   5.630  0.8077 -0.0870  0.7762
10054SOL     OW31581   2.429   2.711   4.820 -0.1365 -0.0993  0.3087
10054SOL    HW131582   2.461   2.659   4.747  2.2247  1.6804 -0.0320
10054SOL    HW231583   2.383   2.785   4.779 -2.9676 -1.4493  0.7795
10055SOL     OW31584   7.177   4.552   6.271  0.1954  0.6803 -0.0805
10055SOL    HW131585   7.118   4.497   6.322 -0.0755 -0.0673 -1.1851
10055SOL    HW231586   7.258   4.502   6.266 -0.3133 -0.0165 -1.7828
10056SOL     OW31587   6.339   2.435   5.916  0.2833  0.1699 -0.7895
10056SOL    HW131588   6.318   2.406   5.827 -1.5231 -0.2539 -0.2588
10056SOL    HW231589   6.255   2.441   5.960  1.1205  0.6783  0.8245
10057SOL     OW31590   4.672   7.216   6.464  0.2911  0.0768 -0.0567
10057SOL    HW131591   4.692   7.127   6.434  2.3512  0.6487 -0.5096
10057SOL    HW231592   4.617   7.203   6.541  1.1512 -1.6240  0.3214
10058SOL     OW31593   4.852   1.664   5.584  0.7217 -0.4078 -0.1674
10058SOL    HW131594   4.862   1.709   5.668  1.6980 -0.8568 -0.0221
10058SOL    HW231595   4.895   1.579   5.598  1.3910 -0.2721 -1.2808
10059SOL     OW31596   7.993   4.478   5.757  0.3142 -0.1104 -0.0443
10059SOL    HW131597   8.045   4.552   5.724  0.3846 -0.5695 -1.0012
10059SOL    HW231598   7.903   4.509   5.754  0.3123 -0.1786 -0.7744
10060SOL     OW31599   3.435   2.311   6.733 -0.5643 -0.6526  0.2377
10060SOL    HW131600   3.349   2.350   6.721  0.7666  2.3521 -0.6958
10060SOL    HW231601   3.453   2.321   6.827 -1.5315 -2.1323  0.6082
10061SOL     OW31602   0.184   1.544   2.359 -0.6910  0.7646 -0.2274
10061SOL    HW131603   0.092   1.519   2.362 -0.8594  0.2750 -3.9553
10061SOL    HW231604   0.185   1.629   2.316  0.5839  0.9746  0.1545
10062SOL     OW31605   3.800   0.145   1.743  0.3560  0.5743  0.1470
10062SOL    HW131606   3.757   0.173   1.824 -0.8666  0.5896 -0.4792
10062SOL    HW231607   3.799   0.224   1.688  0.2893  0.3072 -0.2352
10063SOL     OW31608   1.935   4.167   1.164  0.8231 -0.6630 -0.3771
10063SOL    HW131609   1.931   4.191   1.256  1.5439 -2.3081  0.1222
10063SOL    HW231610   1.857   4.206   1.125  0.5292  0.0796  0.9080
10064SOL     OW31611   5.372   5.312   1.213  0.4541 -0.5488 -0.2821
10064SOL    HW131612   5.426   5.387   1.187 -0.3110 -0.0461 -0.4647
10064SOL    HW231613   5.282   5.346   1.213  0.1882 -1.2043  0.5907
10065SOL     OW31614   3.767   3.324   6.923 -0.0567 -0.3451  0.0876
10065SOL    HW131615   3.829   3.396   6.915 -0.5919  0.3104  1.5074
10065SOL    HW231616   3.772   3.298   7.015  0.3236 -2.3193 -0.4560
10066SOL     OW31617   3.382   7.031   7.535  0.7033  0.0496  0.3101
10066SOL    HW131618   3.295   7.005   7.505  0.6611 -0.8554  1.1969
10066SOL    HW231619   3.395   7.118   7.496 -0.0298 -0.3681 -0.9354
10067SOL     OW31620   2.553   3.736   1.412  0.3572 -0.3219 -0.3464
10067SOL    HW131621   2.576   3.656   1.457 -1.0550 -0.1770  0.7144
10067SOL    HW231622   2.527   3.708   1.324  1.6294 -0.7837 -0.5929
10068SOL     OW31623   6.008   3.315   7.764 -0.1133 -0.2902 -0.4189
10068SOL    HW131624   6.010   3.290   7.856 -0.3809 -1.6485 -0.7684
10068SOL    HW231625   5.924   3.360   7.753  0.7804  1.7180  0.4234
10069SOL     OW31626   2.577   4.124   0.051  0.5472  0.1327 -0.3623
10069SOL    HW131627   2.612   4.199   0.003  0.2479  0.1599 -0.5476
10069SOL    HW231628   2.483   4.142   0.057  0.2443 -0.8510 -1.5769
10070SOL     OW31629   7.212   1.815   2.220  0.8140 -0.9340 -0.1795
10070SOL    HW131630   7.296   1.775   2.195  0.4188 -2.6425  1.0019
10070SOL    HW231631   7.168   1.834   2.138  2.5976  0.6017 -0.8465
10071SOL     OW31632   4.768   6.532   6.198  0.5602 -0.3302  0.1085
10071SOL    HW131633   4.697   6.469   6.182 -0.8717  0.4315  2.8116
10071SOL    HW231634   4.834   6.482   6.246 -0.1061 -0.0892  1.3252
10072SOL     OW31635   4.987   7.056   1.674  0.0437 -0.0573  0.1917
10072SOL    HW131636   4.902   7.056   1.719 -0.3139 -0.1434 -0.4805
10072SOL    HW231637   5.021   6.968   1.687 -0.0320 -0.0656  0.3375
10073SOL     OW31638   7.715   7.658   0.289  0.4743 -0.1607 -0.4067
10073SOL    HW131639   7.655   7.713   0.339  1.3470  0.8179 -0.4073
10073SOL    HW231640   7.724   7.702   0.204  1.7770  0.1523 -0.1384
10074SOL     OW31641   0.605   1.700   0.150  0.3816  0.1485 -0.3821
10074SOL    HW131642   0.513   1.721   0.131  1.0821  0.6468 -3.9323
10074SOL    HW231643   0.614   1.608   0.128  0.5182 -0.2462  1.1990
10075SOL     OW31644   1.823   6.915   6.735 -0.6894 -0.4484 -0.0387
10075SOL    HW131645   1.810   6.946   6.825 -1.3061 -1.6195  0.3128
10075SOL    HW231646   1.735   6.892   6.705 -0.4030 -0.7519 -0.6733
10076SOL     OW31647   7.020   6.107   5.465  0.2495  0.3018  0.0080
10076SOL    HW131648   6.943   6.164   5.469 -0.9664 -1.2269 -0.4403
10076SOL    HW231649   7.094   6.167   5.460 -0.9251  1.8293  0.1089
10077SOL     OW31650   2.152   1.414   6.598 -0.4186  0.0127  0.2587
10077SOL    HW131651   2.166   1.326   6.564  0.1155  1.2390 -3.1343
10077SOL    HW231652   2.060   1.416   6.624  0.0054 -1.9847  2.2112
10078SOL     OW31653   1.083   2.996   7.060  0.0936 -0.0202  0.1434
10078SOL    HW131654   1.018   2.994   7.130 -0.2879 -0.3472 -0.2175
10078SOL    HW231655   1.167   2.997   7.107 -0.0902 -2.3593  0.6555
10079SOL     OW31656   6.982   0.230   4.131  0.2006  0.3810 -0.2960
10079SOL    HW131657   6.938   0.222   4.216  0.3307 -0.6369 -0.3150
10079SOL    HW231658   7.006   0.322   4.126  0.0273  0.4957  0.6935
10080SOL     OW31659   6.669   4.451   0.632  0.2729 -0.4500 -0.0585
10080SOL    HW131660   6.757   4.452   0.595  0.5884  0.0426  0.6920
10080SOL    HW231661   6.673   4.509   0.707 -1.0132  0.5731 -0.7314
10081SOL     OW31662   7.457   4.066   6.601  0.6158  0.1672  0.5427
10081SOL    HW131663   7.424   4.149   6.637 -1.1812  0.1824 -1.0472
10081SOL    HW231664   7.549   4.085   6.579 -0.3385  2.5446 -1.9685
10082SOL     OW31665   4.907   7.053   7.296 -0.2361 -0.1981  0.1402
10082SOL    HW131666   4.951   7.107   7.361 -0.5959 -1.9647  1.9278
10082SOL    HW231667   4.969   6.984   7.275 -0.5637 -0.2963 -0.5695
10083SOL     OW31668   4.168   0.574   7.548  0.5845 -0.1764  0.1891
10083SOL    HW131669   4.224   0.502   7.576 -0.2247 -1.2169 -0.7759
10083SOL    HW231670   4.080   0.536   7.545  0.2362  0.6846 -0.9095
10084SOL     OW31671   3.086   1.016   3.878 -0.2116  0.1121  0.5344
10084SOL    HW131672   3.153   0.983   3.938  0.8694  0.9450 -0.1866
10084SOL    HW231673   3.089   1.111   3.889 -0.2857  0.2467 -0.5541
10085SOL     OW31674   1.883   1.027   1.836  0.2802 -0.5223  0.0800
10085SOL    HW131675   1.962   0.984   1.801  0.8791  1.0123 -0.5153
10085SOL    HW231676   1.916   1.100   1.887 -0.7559  1.0742 -1.4218
10086SOL     OW31677   6.988   0.163   6.368 -0.5706  0.0972 -0.1510
10086SOL    HW131678   7.009   0.216   6.291  0.2645 -0.4408 -0.3042
10086SOL    HW231679   6.938   0.090   6.334 -0.3953 -0.0208 -0.1591
10087SOL     OW31680   4.541   4.324   4.509  0.2003 -0.0633  0.1404
10087SOL    HW131681   4.520   4.307   4.417  0.1284  0.2886  0.0894
10087SOL    HW231682   4.483   4.395   4.534 -0.5632 -0.8979  0.7904
10088SOL     OW31683   5.451   6.127   7.015  0.4440 -0.5264  0.1551
10088SOL    HW131684   5.541   6.136   7.046  0.1843 -0.7530  1.0147
10088SOL    HW231685   5.399   6.122   7.095 -0.5277  1.3433 -0.2937
10089SOL     OW31686   5.785   6.241   7.961 -0.1309  0.2428  0.1941
10089SOL    HW131687   5.876   6.224   7.988  0.0245 -0.5300 -0.7717
10089SOL    HW231688   5.793   6.280   7.874 -0.6982  1.0492  0.4987
10090SOL     OW31689   0.804   4.841   7.944 -0.3962  0.0717 -0.2360
10090SOL    HW131690   0.734   4.833   8.010  0.6597  0.5707  0.9818
10090SOL    HW231691   0.856   4.762   7.955 -0.2679  0.1125 -0.5516
10091SOL     OW31692   4.984   4.547   2.796  0.0931  0.0556  0.4691
10091SOL    HW131693   4.894   4.525   2.820 -0.2415  0.8443 -0.0244
10091SOL    HW231694   5.037   4.496   2.857 -0.7152  1.4618  2.4559
10092SOL     OW31695   7.930   1.425   7.570  0.8485  0.0674 -0.6027
10092SOL    HW131696   7.858   1.365   7.590  0.9292  0.3676  0.6478
10092SOL    HW231697   7.927   1.435   7.474 -0.3088 -0.4907 -0.6393
10093SOL     OW31698   2.513   5.319   2.893  0.3136  0.1518 -0.3574
10093SOL    HW131699   2.464   5.240   2.914  0.3170  0.1992 -0.1682
10093SOL    HW231700   2.599   5.287   2.865  1.0624  0.1447  1.7307
10094SOL     OW31701   2.213   3.677   0.614  0.4438 -0.0254 -0.4341
10094SOL    HW131702   2.176   3.600   0.572  0.2727 -0.2293  0.0764
10094SOL    HW231703   2.216   3.654   0.707  2.5411 -0.3130 -0.5230
10095SOL     OW31704   7.597   4.386   0.172  0.5690 -0.4059 -0.1486
10095SOL    HW131705   7.575   4.467   0.127 -0.8166  1.1482  3.0536
10095SOL    HW231706   7.691   4.394   0.191  0.5796  0.1292 -0.4156
10096SOL     OW31707   6.420   3.017   1.971 -0.1517 -0.6109 -0.1564
10096SOL    HW131708   6.414   3.086   1.904  2.9148  0.9331  0.9607
10096SOL    HW231709   6.337   3.023   2.019 -1.0265  0.5279 -1.7067
10097SOL     OW31710   5.171   7.218   0.031  0.1823  0.1858 -0.9912
10097SOL    HW131711   5.228   7.294   0.031  1.3583 -0.6525  0.2986
10097SOL    HW231712   5.185   7.177   0.116 -1.7932 -0.4781 -0.9224
10098SOL     OW31713   4.447   5.839   1.474 -0.4255  0.0920  0.4782
10098SOL    HW131714   4.514   5.807   1.536 -0.0840 -1.7218 -0.7470
10098SOL    HW231715   4.479   5.811   1.388 -1.2710  1.9044 -0.4703
10099SOL     OW31716   7.715   0.766   6.279  0.4919  0.2763 -0.0221
10099SOL    HW131717   7.760   0.683   6.295 -0.6763 -0.0817  1.7338
10099SOL    HW231718   7.760   0.829   6.334 -0.5058  0.1089  1.0341
10100SOL     OW31719   1.374   7.304   5.967 -0.2538 -0.1847 -0.2116
10100SOL    HW131720   1.395   7.332   5.878 -0.3701 -1.8477 -0.7968
10100SOL    HW231721   1.281   7.325   5.977  0.5695  3.6546  1.0126
10101SOL     OW31722   4.782   2.459   4.445 -0.2810  0.2288  0.5695
10101SOL    HW131723   4.689   2.435   4.441 -0.3578  0.3044  1.6464
10101SOL    HW231724   4.782   2.554   4.451 -0.2588  0.1394  2.8748
10102SOL     OW31725   5.572   1.664   0.341  0.5638 -0.0532  0.3083
10102SOL    HW131726   5.541   1.754   0.355 -1.2991 -0.3231 -1.5859
10102SOL    HW231727   5.493   1.610   0.349  1.6824 -1.5760  1.5576
10103SOL     OW31728   7.128   5.558   6.375 -0.1463 -0.2459 -0.6742
10103SOL    HW131729   7.071   5.539   6.449  1.0404 -0.9917  0.0838
10103SOL    HW231730   7.095   5.503   6.304 -1.6391  0.8911 -0.8950
10104SOL     OW31731   4.223   1.222   6.560  0.0317 -0.5589 -0.0123
10104SOL    HW131732   4.316   1.213   6.582 -0.1188 -1.0546  0.4422
10104SOL    HW231733   4.208   1.152   6.496 -0.2577 -1.1276  0.6674
10105SOL     OW31734   5.391   0.725   4.556  0.1392 -0.3353  0.3359
10105SOL    HW131735   5.329   0.652   4.568 -0.8517  0.4487  0.1364
10105SOL    HW231736   5.361   0.768   4.476  0.5057  0.4900  0.6382
10106SOL     OW31737   7.312   3.005   7.654  0.1196  0.1299 -0.4086
10106SOL    HW131738   7.296   3.097   7.633 -1.1538 -0.3930 -1.8817
10106SOL    HW231739   7.251   2.986   7.725  0.0069  0.2872 -0.4622
10107SOL     OW31740   5.572   0.613   0.058  0.3039 -0.8573 -0.0429
10107SOL    HW131741   5.543   0.668   0.131 -1.3139 -1.2002 -0.3940
10107SOL    HW231742   5.546   0.662  -0.020  0.8760 -1.0914 -0.3868
10108SOL     OW31743   1.787   6.880   3.734 -0.5852 -0.7847 -0.5197
10108SOL    HW131744   1.832   6.853   3.814 -0.4855 -1.4491 -0.7944
10108SOL    HW231745   1.823   6.967   3.714 -2.7566  0.7612  1.7900
10109SOL     OW31746   4.464   6.455   7.903 -0.6258  0.4198  0.2462
10109SOL    HW131747   4.515   6.532   7.927 -0.5141  0.6904 -0.8171
10109SOL    HW231748   4.499   6.428   7.818 -1.2617 -0.2665  0.1905
10110SOL     OW31749   1.846   2.079   4.886  0.2109  0.0484 -0.0794
10110SOL    HW131750   1.796   2.157   4.909  0.1280  0.2740 -0.9604
10110SOL    HW231751   1.856   2.085   4.791 -0.3175 -1.3157 -0.2445
10111SOL     OW31752   7.019   7.970   5.606  0.0814 -0.6207 -0.3304
10111SOL    HW131753   6.959   7.895   5.609  0.6092 -1.0614 -0.5403
10111SOL    HW231754   6.973   8.039   5.652 -0.5119 -1.0101 -0.3246
10112SOL     OW31755   4.640   0.039   3.932 -0.5600 -0.2721  0.4638
10112SOL    HW131756   4.684  -0.024   3.875  0.6678  1.7969 -0.9919
10112SOL    HW231757   4.682   0.028   4.017  0.5411 -0.5364 -0.0987
10113SOL     OW31758   2.959   0.305   7.207  0.5394 -0.2200  0.2730
10113SOL    HW131759   2.920   0.219   7.224  0.3669  0.1359  1.7716
10113SOL    HW231760   2.947   0.318   7.113 -0.3042 -1.4083  0.1926
10114SOL     OW31761   6.344   8.000   6.025 -0.0471 -0.1690 -0.4506
10114SOL    HW131762   6.392   8.034   6.101  1.5639  1.3006 -2.0300
10114SOL    HW231763   6.355   7.905   6.031  0.7446 -0.0294  0.7261
10115SOL     OW31764   4.914   5.549   3.728  0.5902 -0.5477 -0.6107
10115SOL    HW131765   4.928   5.524   3.819 -2.0847 -1.3901 -0.3533
10115SOL    HW231766   4.996   5.525   3.684  1.9499 -0.1041  1.5229
10116SOL     OW31767   7.437   1.069   1.246 -0.4291  0.1729  0.2106
10116SOL    HW131768   7.404   1.064   1.156 -1.6907  0.4040  0.6417
10116SOL    HW231769   7.471   0.981   1.264  0.5759  0.3381 -0.7387
10117SOL     OW31770   3.135   1.899   3.995 -0.0727 -0.0660  0.4961
10117SOL    HW131771   3.154   1.978   3.945  0.6192 -1.5024 -1.6457
10117SOL    HW231772   3.040   1.899   4.006 -0.0413  1.2368  0.8919
10118SOL     OW31773   7.415   3.953   7.916  0.6325  0.0570  0.7061
10118SOL    HW131774   7.467   3.959   7.996  0.6963  2.8604  0.5587
10118SOL    HW231775   7.324   3.961   7.946  0.7232  3.6956  0.4974
10119SOL     OW31776   0.635   0.056   3.129  0.3666  0.2104 -0.4678
10119SOL    HW131777   0.630  -0.017   3.068 -1.2881  1.4668 -1.9259
10119SOL    HW231778   0.711   0.106   3.101  0.9893 -0.4659 -0.0080
10120SOL     OW31779   4.633   4.107   3.595  0.0911 -0.3407 -0.1868
10120SOL    HW131780   4.588   4.110   3.679  0.7827 -1.2762  0.2319
10120SOL    HW231781   4.725   4.118   3.617  0.2370 -0.1613 -0.8730
10121SOL     OW31782   0.274   4.545   0.566  0.2143 -0.2951  0.2621
10121SOL    HW131783   0.356   4.511   0.599  1.4277  1.0694 -1.1840
10121SOL    HW231784   0.270   4.514   0.475  0.3325  1.5607 -0.4239
10122SOL     OW31785   1.701   4.311   2.729  1.4065 -0.1304  0.3219
10122SOL    HW131786   1.706   4.285   2.821 -0.4934  0.4791  0.6432
10122SOL    HW231787   1.721   4.231   2.681  2.7516 -0.3805  1.2384
10123SOL     OW31788   5.223   3.514   5.199  0.2228 -1.1351  0.8509
10123SOL    HW131789   5.316   3.520   5.176  0.1021  0.1359  0.6168
10123SOL    HW231790   5.177   3.523   5.116 -0.1352 -0.4910  1.1131
10124SOL     OW31791   5.537   7.057   7.239  0.0740 -0.0242  0.4962
10124SOL    HW131792   5.500   7.096   7.319 -0.1498 -0.4900  0.6211
10124SOL    HW231793   5.462   7.016   7.195  0.5720 -1.8127  1.2324
10125SOL     OW31794   4.584   4.769   6.424 -0.0748  0.1943  0.0225
10125SOL    HW131795   4.535   4.850   6.409  0.8817  0.7436 -0.2595
10125SOL    HW231796   4.669   4.799   6.456 -0.1837 -0.7674  1.2649
10126SOL     OW31797   0.901   5.095   2.613  0.1534 -0.0946 -0.1405
10126SOL    HW131798   0.847   5.091   2.534  0.4541 -0.5016 -0.3291
10126SOL    HW231799   0.990   5.107   2.581  0.3016 -0.4402  0.1281
10127SOL     OW31800   7.732   0.329   1.083 -0.0848 -0.1231  0.3327
10127SOL    HW131801   7.766   0.244   1.110  1.4849  0.3690 -0.0132
10127SOL    HW231802   7.789   0.356   1.011 -2.6992 -0.3208 -1.9539
10128SOL     OW31803   6.387   3.385   4.976  0.0861  0.2262 -0.9553
10128SOL    HW131804   6.325   3.412   5.043  0.2615 -0.5545 -0.4642
10128SOL    HW231805   6.400   3.291   4.991  3.5148  0.7898  0.8222
10129SOL     OW31806   7.069   3.424   4.110  0.0815 -0.0169  0.0813
10129SOL    HW131807   7.100   3.377   4.033  2.2707  3.6382 -1.5337
10129SOL    HW231808   7.126   3.395   4.181  1.0636 -0.1742 -0.7490
10130SOL     OW31809   4.085   6.219   3.079  0.3645  0.2301 -0.0649
10130SOL    HW131810   4.058   6.137   3.039  3.1400 -1.4236  1.1795
10130SOL    HW231811   4.064   6.209   3.172  2.8907 -0.1476  0.5166
10131SOL     OW31812   2.246   7.102   5.953 -0.1384  0.1372 -0.2406
10131SOL    HW131813   2.161   7.058   5.953 -0.2871  0.4063  0.5214
10131SOL    HW231814   2.309   7.033   5.971 -0.2724  0.0755 -0.0080
10132SOL     OW31815   0.837   2.366   2.411  0.0189  0.2816  0.0685
10132SOL    HW131816   0.801   2.320   2.336  0.7060 -0.8104  0.3839
10132SOL    HW231817   0.920   2.402   2.380  0.5624 -0.6276  0.4337
10133SOL     OW31818   1.993   1.205   5.567 -0.5487 -0.0416  0.2798
10133SOL    HW131819   1.947   1.226   5.648 -0.8744  0.8693 -0.1272
10133SOL    HW231820   1.946   1.130   5.531 -1.7054  0.8257 -0.0896
10134SOL     OW31821   2.492   1.096   7.553  0.2702  0.0367 -0.1116
10134SOL    HW131822   2.545   1.175   7.549 -0.5746  0.6186 -0.1014
10134SOL    HW231823   2.437   1.100   7.475 -2.6159  1.5484  1.8282
10135SOL     OW31824   5.349   3.474   2.815  0.0753  0.0087  0.0814
10135SOL    HW131825   5.312   3.425   2.888 -0.1408 -1.0777 -0.7430
10135SOL    HW231826   5.375   3.558   2.854 -0.4120 -0.3869  1.3111
10136SOL     OW31827   1.423   5.668   0.924 -0.6973  0.0383 -0.3362
10136SOL    HW131828   1.330   5.686   0.936 -0.3536  1.5858  0.2552
10136SOL    HW231829   1.461   5.676   1.011 -0.1818 -1.9278 -0.3274
10137SOL     OW31830   7.195   7.493   0.617  0.3280  0.1762  0.1831
10137SOL    HW131831   7.263   7.474   0.682  1.9015  0.0115 -1.4365
10137SOL    HW231832   7.113   7.474   0.662  1.2774  1.1313  2.4730
10138SOL     OW31833   3.979   1.633   1.224 -0.5496  0.0839  0.0385
10138SOL    HW131834   3.971   1.561   1.161  0.8833  1.1867 -1.4874
10138SOL    HW231835   3.917   1.699   1.192 -0.2123  0.4276  0.0912
10139SOL     OW31836   1.217   3.691   1.049 -0.5484 -0.1189 -0.0762
10139SOL    HW131837   1.307   3.684   1.018 -0.2395 -1.5767  1.0040
10139SOL    HW231838   1.170   3.737   0.980  1.0979  1.0172 -0.4748
10140SOL     OW31839   1.413   1.415   4.466 -0.2348 -0.1357 -0.0767
10140SOL    HW131840   1.356   1.438   4.539  2.0331  1.0489  1.4725
10140SOL    HW231841   1.480   1.484   4.465  1.0331 -1.2866 -1.9074
10141SOL     OW31842   3.008   6.488   1.984  0.8444 -0.2127  0.2487
10141SOL    HW131843   2.960   6.407   2.004 -0.9590  0.4759 -0.9987
10141SOL    HW231844   3.086   6.458   1.937 -0.0664 -1.2231 -0.6810
10142SOL     OW31845   7.067   4.638   7.057 -0.3023  0.1441  0.2664
10142SOL    HW131846   7.119   4.685   7.122 -0.5673  0.6280  0.1410
10142SOL    HW231847   7.119   4.562   7.034 -0.0670  0.1358  0.8146
10143SOL     OW31848   6.271   4.360   4.966  0.2237 -0.2693  0.2625
10143SOL    HW131849   6.225   4.287   4.925 -0.1033 -1.3216  2.3994
10143SOL    HW231850   6.354   4.322   4.995  0.5987  0.5399  0.2702
10144SOL     OW31851   7.605   3.689   0.087  0.2182 -0.0511  0.3156
10144SOL    HW131852   7.590   3.601   0.119 -0.2575 -0.3596 -0.7158
10144SOL    HW231853   7.532   3.740   0.121  1.1843  0.2630  2.0097
10145SOL     OW31854   6.521   7.021   4.611  0.1005  0.7255  0.1571
10145SOL    HW131855   6.567   7.101   4.638  1.1371  0.5073 -0.8503
10145SOL    HW231856   6.472   6.994   4.688  1.4317  1.1640  1.2012
10146SOL     OW31857   3.922   6.228   2.288 -0.2035 -0.0598  0.9101
10146SOL    HW131858   3.922   6.172   2.210 -1.8762  0.5182  0.4426
10146SOL    HW231859   3.949   6.314   2.255  1.7940 -0.4151  1.5179
10147SOL     OW31860   3.876   3.336   5.210 -0.1950 -0.1524  0.1736
10147SOL    HW131861   3.950   3.371   5.260 -1.2146  0.2121  1.4766
10147SOL    HW231862   3.816   3.410   5.200 -1.5744 -1.0543  1.4343
10148SOL     OW31863   6.360   2.452   0.300 -0.7418 -0.1967  0.0362
10148SOL    HW131864   6.395   2.520   0.358 -0.7959 -0.1088 -0.0335
10148SOL    HW231865   6.295   2.406   0.352  0.1695 -0.9989  0.4936
10149SOL     OW31866   0.918   6.156   0.449  0.2218 -0.0621  0.3764
10149SOL    HW131867   0.844   6.146   0.390 -0.4978  1.4784  0.9925
10149SOL    HW231868   0.995   6.138   0.394 -0.4204  1.4205 -1.0821
10150SOL     OW31869   7.242   7.544   4.488 -0.9549  0.2922  0.4820
10150SOL    HW131870   7.190   7.474   4.527  1.4315 -1.4563  0.7823
10150SOL    HW231871   7.317   7.554   4.547  0.2014  1.1116 -1.0388
10151SOL     OW31872   4.975   0.812   1.726  0.2279 -0.2611 -0.3110
10151SOL    HW131873   4.904   0.752   1.702 -0.5427 -0.1678  1.5792
10151SOL    HW231874   5.014   0.837   1.642 -0.1643 -2.4925 -1.2311
10152SOL     OW31875   3.640   0.366   5.262  0.3115  0.3685 -0.0343
10152SOL    HW131876   3.642   0.435   5.194 -0.1625 -0.0417 -0.4746
10152SOL    HW231877   3.704   0.301   5.232 -0.9033 -0.4979 -0.8517
10153SOL     OW31878   1.879   2.298   2.302  0.0491 -0.3234  1.3766
10153SOL    HW131879   1.793   2.314   2.263  1.1003  1.8478 -0.2798
10153SOL    HW231880   1.942   2.335   2.239  2.3353 -2.9708  1.9065
10154SOL     OW31881   2.393   1.547   0.865 -0.5508 -0.2583  0.0389
10154SOL    HW131882   2.329   1.534   0.795  0.2797 -0.0636 -0.7760
10154SOL    HW231883   2.340   1.563   0.943 -1.5079 -1.7907 -0.2620
10155SOL     OW31884   1.649   3.396   2.720  0.0970 -0.0152  0.6368
10155SOL    HW131885   1.663   3.302   2.731 -0.4951 -0.4580 -1.7858
10155SOL    HW231886   1.725   3.437   2.762  0.4958 -1.5609  1.5134
10156SOL     OW31887   4.326   0.830   2.792  0.1331 -0.5428 -0.8571
10156SOL    HW131888   4.418   0.858   2.785 -0.2829  0.6560 -1.8948
10156SOL    HW231889   4.325   0.772   2.868  1.2129  1.7366  1.0075
10157SOL     OW31890   8.012   1.768   5.011 -1.0750  0.4833  0.4711
10157SOL    HW131891   7.963   1.821   5.074 -1.1319  0.9020  0.0744
10157SOL    HW231892   7.958   1.690   4.997 -0.8221  0.1371  1.3311
10158SOL     OW31893   6.361   1.666   5.303  0.5323  0.0274 -0.3285
10158SOL    HW131894   6.328   1.617   5.228 -0.6012  2.7198 -1.7363
10158SOL    HW231895   6.284   1.714   5.335  1.3985  0.2840  1.4699
10159SOL     OW31896   5.143   3.638   7.151  0.2240  0.3024  0.1621
10159SOL    HW131897   5.100   3.703   7.095 -2.6636  0.6004  2.4394
10159SOL    HW231898   5.177   3.689   7.224  0.8608 -0.4111  0.3711
10160SOL     OW31899   3.722   3.671   7.900 -0.6584  0.5619 -0.5170
10160SOL    HW131900   3.709   3.748   7.955 -0.2920  1.8581 -2.1726
10160SOL    HW231901   3.696   3.699   7.812  1.6028 -0.4622 -1.6183
10161SOL     OW31902   6.580   2.609   6.833  0.2591  0.4714  0.2043
10161SOL    HW131903   6.674   2.628   6.842  0.3126  1.0902 -1.3425
10161SOL    HW231904   6.573   2.515   6.852  0.8295  0.8523  2.5203
10162SOL     OW31905   7.361   1.532   2.699  0.1073  0.2581 -0.2761
10162SOL    HW131906   7.417   1.455   2.711 -0.2440 -0.1378 -1.1029
10162SOL    HW231907   7.272   1.500   2.713  0.0429  0.8225  0.7396
10163SOL     OW31908   2.799   1.157   6.330 -0.1521 -0.2449  0.0744
10163SOL    HW131909   2.756   1.211   6.264 -0.0870  0.7450  0.8245
10163SOL    HW231910   2.837   1.084   6.280  0.2691  0.7017 -1.0368
10164SOL     OW31911   2.915   3.782   2.086 -0.3942  0.0150 -0.6620
10164SOL    HW131912   2.983   3.720   2.112 -2.1153 -0.8421  2.2768
10164SOL    HW231913   2.961   3.851   2.038  2.6782 -0.1643  1.7665
10165SOL     OW31914   7.630   6.045   6.221 -0.5093 -0.0788 -0.4130
10165SOL    HW131915   7.540   6.077   6.230 -0.5707  0.1393 -1.5735
10165SOL    HW231916   7.661   6.034   6.311 -0.9423  1.9936  0.0523
10166SOL     OW31917   2.059   2.497   3.480  0.1752 -0.0732 -0.6949
10166SOL    HW131918   1.964   2.491   3.475 -0.2996  0.2954  3.9643
10166SOL    HW231919   2.089   2.408   3.462 -0.7343  0.1308 -3.9129
10167SOL     OW31920   6.430   0.338   7.935 -0.0354 -0.3631  0.2066
10167SOL    HW131921   6.386   0.268   7.983 -0.3927 -1.7806 -2.0486
10167SOL    HW231922   6.363   0.372   7.876  0.6999  0.5363 -0.1347
10168SOL     OW31923   5.119   4.442   7.127 -0.6775  0.0870  0.4738
10168SOL    HW131924   5.053   4.485   7.181  1.1270  1.7102  1.5020
10168SOL    HW231925   5.155   4.512   7.072  0.9101 -0.5122  0.6955
10169SOL     OW31926   7.213   5.160   6.381  0.5258  0.0042  0.0426
10169SOL    HW131927   7.193   5.103   6.456  0.2487 -0.1308 -0.1303
10169SOL    HW231928   7.148   5.230   6.386 -1.1042 -1.3282 -1.4749
10170SOL     OW31929   2.773   2.846   6.604 -0.6445  0.5198 -0.7792
10170SOL    HW131930   2.788   2.885   6.689  0.8871 -0.0309 -0.7687
10170SOL    HW231931   2.678   2.834   6.599 -0.6461 -0.9320  1.5264
10171SOL     OW31932   2.837   1.795   3.214  0.1331 -0.0631  0.8841
10171SOL    HW131933   2.752   1.836   3.195  0.3310  0.2994  0.7668
10171SOL    HW231934   2.868   1.764   3.129 -0.6050 -1.6353  1.1503
10172SOL     OW31935   6.805   3.510   4.021  0.0318  0.2294  0.2933
10172SOL    HW131936   6.883   3.468   4.058 -0.2375 -1.1115 -0.5727
10172SOL    HW231937   6.753   3.537   4.097  0.7581  0.0109  0.8735
10173SOL     OW31938   4.759   1.140   6.177 -0.4060 -0.0857 -0.0206
10173SOL    HW131939   4.765   1.170   6.268 -0.7337 -2.2838  0.7920
10173SOL    HW231940   4.771   1.045   6.183  0.4373 -0.1693 -2.3946
10174SOL     OW31941   5.709   5.497   2.973  0.5286 -0.8880  0.1550
10174SOL    HW131942   5.709   5.406   3.003  1.1943 -1.0289 -0.2559
10174SOL    HW231943   5.624   5.509   2.932  0.6242 -1.4670 -0.2152
10175SOL     OW31944   3.870   2.969   4.844  0.3548 -0.2451  0.3202
10175SOL    HW131945   3.782   3.004   4.829 -0.1796 -0.7671  1.9672
10175SOL    HW231946   3.899   3.011   4.925  1.7357  0.0808 -0.3079
10176SOL     OW31947   3.788   0.272   1.350 -0.2996 -0.5235  0.1091
10176SOL    HW131948   3.730   0.199   1.371  1.3429 -1.6701  0.9105
10176SOL    HW231949   3.867   0.231   1.315  0.1765  0.9571 -0.6345
10177SOL     OW31950   6.531   0.652   5.856 -0.3110 -0.3787 -0.6681
10177SOL    HW131951   6.441   0.659   5.823 -0.5485  0.6021  0.1614
10177SOL    HW231952   6.570   0.737   5.838 -0.2827  0.0036  1.0625
10178SOL     OW31953   3.091   3.203   4.304 -0.1573 -0.4094  0.5330
10178SOL    HW131954   3.084   3.140   4.233 -2.2869  1.3388 -0.9114
10178SOL    HW231955   3.011   3.192   4.355 -0.1879  0.5846  0.7192
10179SOL     OW31956   1.098   4.770   0.742 -0.4021 -0.0951  0.2246
10179SOL    HW131957   1.116   4.779   0.648 -0.9346 -1.6685 -0.0485
10179SOL    HW231958   1.170   4.716   0.775 -0.6186 -0.1744  0.5761
10180SOL     OW31959   4.737   7.157   3.540 -0.1608 -0.1367 -0.4064
10180SOL    HW131960   4.744   7.248   3.568  0.8325 -0.1089 -0.6956
10180SOL    HW231961   4.654   7.127   3.576 -0.7951  1.0547 -0.8235
10181SOL     OW31962   7.703   1.482   1.077 -0.1184 -0.2967 -0.1282
10181SOL    HW131963   7.664   1.395   1.067  0.7211 -0.8699  1.2756
10181SOL    HW231964   7.638   1.542   1.040 -0.2804 -1.5807 -2.0815
10182SOL     OW31965   3.383   1.773   2.379  0.0942 -0.6563 -0.0958
10182SOL    HW131966   3.292   1.799   2.396  0.6585  0.6142  1.1527
10182SOL    HW231967   3.378   1.720   2.299 -1.8495 -1.3219  0.3978
10183SOL     OW31968   5.924   0.720   2.528 -0.4222 -0.0664 -0.1283
10183SOL    HW131969   5.957   0.738   2.616  0.2229  3.0578 -0.8839
10183SOL    HW231970   5.962   0.635   2.506 -0.3709 -0.8045  2.4650
10184SOL     OW31971   4.672   2.590   5.625  0.2055 -0.4735 -0.0359
10184SOL    HW131972   4.668   2.512   5.681 -1.2470 -1.1858 -1.0646
10184SOL    HW231973   4.639   2.661   5.681  0.9181 -0.7048  0.7008
10185SOL     OW31974   4.070   1.541   7.859 -0.0128 -0.3081 -0.0999
10185SOL    HW131975   4.012   1.473   7.824  2.4756 -1.0983 -3.1882
10185SOL    HW231976   4.069   1.610   7.792 -0.5962  1.6386  1.8225
10186SOL     OW31977   0.399   4.677   5.038  0.2981  0.4715  0.1547
10186SOL    HW131978   0.440   4.652   5.121  1.5958  1.5032 -0.1411
10186SOL    HW231979   0.464   4.656   4.972 -1.1823 -1.4570 -0.7812
10187SOL     OW31980   0.857   2.948   0.165  0.6587 -0.4585  0.1246
10187SOL    HW131981   0.859   2.893   0.243 -4.5426 -0.0743  0.8528
10187SOL    HW231982   0.804   2.899   0.102 -0.0668  1.6559 -1.0205
10188SOL     OW31983   4.371   2.959   6.911 -0.2089  0.3920  0.1092
10188SOL    HW131984   4.422   3.040   6.912 -0.3219  0.4590  0.4236
10188SOL    HW231985   4.367   2.931   7.003 -2.0995  1.2463  0.3295
10189SOL     OW31986   7.968   4.326   1.129  0.4243  0.0671  0.1462
10189SOL    HW131987   7.983   4.419   1.141  1.8826 -0.0688 -0.4809
10189SOL    HW231988   8.021   4.284   1.197  0.3426 -0.3423 -0.0375
10190SOL     OW31989   1.888   0.634   4.612  0.3856  0.1907  0.3353
10190SOL    HW131990   1.889   0.726   4.587 -0.3005 -0.0277 -0.5878
10190SOL    HW231991   1.853   0.589   4.534 -0.8995 -0.6505  1.3547
10191SOL     OW31992   6.413   6.953   5.239 -0.6770  0.1998 -0.1082
10191SOL    HW131993   6.469   6.883   5.272 -0.1428  1.2939  1.4018
10191SOL    HW231994   6.356   6.910   5.176  1.1641 -1.1433 -0.9517
10192SOL     OW31995   6.785   3.204   0.036 -0.6316  0.3031  1.0566
10192SOL    HW131996   6.863   3.215   0.091 -0.6474 -0.2843  1.1953
10192SOL    HW231997   6.726   3.149   0.087 -0.9332  0.3255  0.7397
10193SOL     OW31998   3.908   6.223   2.681 -0.0954 -0.4163  0.3341
10193SOL    HW131999   3.881   6.162   2.613 -0.2658 -0.6551  0.6164
10193SOL    HW232000   3.989   6.186   2.716 -0.9362 -1.2612  1.4872
10194SOL     OW32001   2.033   4.946   7.774  0.4989 -0.4950 -0.4206
10194SOL    HW132002   2.121   4.983   7.784  1.2837 -2.6834  1.6268
10194SOL    HW232003   1.989   5.006   7.714  3.1557  1.0489 -0.9990
10195SOL     OW32004   7.451   3.227   0.286 -0.3454 -0.5362 -0.1090
10195SOL    HW132005   7.368   3.178   0.288 -0.1091 -0.9277  0.4895
10195SOL    HW232006   7.500   3.193   0.360  0.6785 -0.8656 -0.9176
10196SOL     OW32007   0.538   6.150   5.582  0.2360 -0.6513  0.3046
10196SOL    HW132008   0.607   6.210   5.611  0.2309 -0.0844 -0.7884
10196SOL    HW232009   0.585   6.074   5.548  0.3299 -0.3024 -0.3606
10197SOL     OW32010   4.450   5.727   3.049 -0.0472 -0.6485 -0.0465
10197SOL    HW132011   4.398   5.647   3.057 -0.4913 -0.2405  1.9126
10197SOL    HW232012   4.385   5.797   3.050  0.4228 -0.2050  0.4106
10198SOL     OW32013   5.687   3.526   1.955  0.3798  0.2127 -0.0439
10198SOL    HW132014   5.600   3.496   1.932  0.5639 -0.7908  0.5248
10198SOL    HW232015   5.692   3.615   1.920 -1.4513  0.9039  1.3000
10199SOL     OW32016   6.135   1.113   3.382 -0.3038 -0.4795 -0.2710
10199SOL    HW132017   6.062   1.084   3.327 -0.6680 -0.6719  0.3102
10199SOL    HW232018   6.124   1.066   3.464  0.3189 -0.2978 -0.0805
10200SOL     OW32019   4.793   6.994   6.634  0.1453  0.0388  0.1163
10200SOL    HW132020   4.763   6.924   6.691 -0.9497 -1.8320 -2.5895
10200SOL    HW232021   4.736   7.068   6.655 -1.7326 -1.3063 -0.1048
10201SOL     OW32022   1.154   6.354   7.480  0.0393 -0.0703  0.1451
10201SOL    HW132023   1.145   6.407   7.401 -0.3982  0.8362  0.7914
10201SOL    HW232024   1.223   6.292   7.459  0.1142  0.3320 -0.8554
10202SOL     OW32025   0.084   3.949   4.195 -0.5801  0.0546  0.3387
10202SOL    HW132026   0.144   3.935   4.269 -1.1322  0.8787  0.9635
10202SOL    HW232027   0.000   3.914   4.226 -1.0547  1.2730  0.5014
10203SOL     OW32028   3.834   1.401   1.859  0.0940  0.2644 -0.3659
10203SOL    HW132029   3.775   1.441   1.795  0.7410 -1.5746 -2.2595
10203SOL    HW232030   3.777   1.376   1.932 -1.2733 -0.2051 -1.5258
10204SOL     OW32031   5.215   0.582   0.305  0.0424 -0.8142 -0.1269
10204SOL    HW132032   5.277   0.648   0.274 -1.4683  1.1910  0.9065
10204SOL    HW232033   5.264   0.532   0.370  1.2580 -0.8360 -1.0249
10205SOL     OW32034   2.377   3.057   5.587 -0.0345 -0.1720  0.5735
10205SOL    HW132035   2.457   3.053   5.640  1.1180  0.6967 -0.9937
10205SOL    HW232036   2.394   3.127   5.524 -1.1869 -1.3517 -1.1365
10206SOL     OW32037   2.090   1.538   7.579 -0.1045  0.1098 -0.1469
10206SOL    HW132038   2.156   1.508   7.641  0.0516  1.5672  0.4518
10206SOL    HW232039   2.112   1.495   7.497 -0.1774 -1.6887  0.7352
10207SOL     OW32040   6.804   4.896   2.208  0.1667  0.1356 -0.0831
10207SOL    HW132041   6.826   4.919   2.298 -0.1678 -0.8993  0.2745
10207SOL    HW232042   6.709   4.908   2.202  0.0959 -0.3822 -0.1055
10208SOL     OW32043   2.930   2.133   7.003  0.4110  0.3830 -0.1888
10208SOL    HW132044   2.913   2.226   6.987 -0.2020  0.6696  1.8547
10208SOL    HW232045   2.849   2.101   7.044  0.4962 -1.1535 -1.1500
10209SOL     OW32046   0.170   5.415   5.966  0.0740 -0.0315  0.0166
10209SOL    HW132047   0.153   5.408   6.060 -0.1508  1.2431  0.0881
10209SOL    HW232048   0.179   5.324   5.936 -2.6420 -0.6443  0.7591
10210SOL     OW32049   2.435   7.998   0.087  0.8545  0.6679  0.2561
10210SOL    HW132050   2.520   7.977   0.047  0.8621  1.3056 -0.0833
10210SOL    HW232051   2.450   7.990   0.181  1.4284  1.2576  0.2221
10211SOL     OW32052   4.576   6.678   5.073 -0.0734 -0.2366 -0.0126
10211SOL    HW132053   4.536   6.765   5.081  1.8319  0.8721 -1.4034
10211SOL    HW232054   4.598   6.671   4.980  0.3753 -1.9541  0.1900
10212SOL     OW32055   6.361   4.584   5.694 -0.1341 -0.4035  0.0717
10212SOL    HW132056   6.400   4.639   5.626  0.3395  0.4882  1.0407
10212SOL    HW232057   6.333   4.505   5.647 -0.0801  0.3001 -1.2029
10213SOL     OW32058   4.185   4.015   4.078 -0.0183 -0.4387 -0.1838
10213SOL    HW132059   4.274   4.028   4.111  0.9695  0.1332 -2.8570
10213SOL    HW232060   4.170   4.090   4.020 -1.6457 -1.3308 -0.9740
10214SOL     OW32061   1.938   6.548   4.139  0.7592  0.6089 -0.1531
10214SOL    HW132062   1.919   6.462   4.101  0.1411 -0.0658  1.5383
10214SOL    HW232063   1.912   6.611   4.072 -0.6626 -0.4932 -0.6987
10215SOL     OW32064   5.757   1.287   2.521 -0.0810  0.1794  0.0986
10215SOL    HW132065   5.784   1.379   2.525 -0.6197  0.4161 -1.1446
10215SOL    HW232066   5.736   1.264   2.611 -0.9146  1.5904  0.2962
10216SOL     OW32067   1.828   5.471   3.313 -0.1922 -0.1993  0.1823
10216SOL    HW132068   1.902   5.428   3.356  0.8125  1.1068 -0.1825
10216SOL    HW232069   1.790   5.403   3.257  0.4716 -0.9976  0.6657
10217SOL     OW32070   1.557   6.547   7.972  0.2971  0.0569 -0.4217
10217SOL    HW132071   1.626   6.483   7.956 -0.0118 -0.1668 -0.8724
10217SOL    HW232072   1.491   6.528   7.906 -0.3676  0.0223  0.2384
10218SOL     OW32073   1.904   3.215   7.226 -0.2902 -0.1890 -0.1458
10218SOL    HW132074   1.826   3.267   7.242 -0.2390 -0.3081  0.5217
10218SOL    HW232075   1.976   3.277   7.230 -0.3218 -0.1276 -0.4764
10219SOL     OW32076   3.436   7.168   6.649 -0.2068  0.4287 -0.0170
10219SOL    HW132077   3.525   7.175   6.683 -0.0462 -2.1013  0.2988
10219SOL    HW232078   3.386   7.129   6.721 -1.3402  0.8590 -0.5441
10220SOL     OW32079   4.772   6.796   3.217 -0.3034 -0.0484 -0.4132
10220SOL    HW132080   4.704   6.807   3.284  0.9603 -0.0153  0.9142
10220SOL    HW232081   4.799   6.704   3.225  1.3233  0.4782  0.6223
10221SOL     OW32082   4.697   1.978   1.406 -0.1364 -0.6768  0.8786
10221SOL    HW132083   4.724   1.895   1.445 -0.8450 -1.2136  0.2774
10221SOL    HW232084   4.665   2.030   1.479  0.9417 -0.6635  1.3591
10222SOL     OW32085   1.637   0.784   5.394  0.4352 -0.0917  0.7203
10222SOL    HW132086   1.600   0.835   5.467 -2.9613 -2.0234  0.5705
10222SOL    HW232087   1.629   0.693   5.422  1.9983 -0.7626 -0.8454
10223SOL     OW32088   5.464   0.494   4.175  0.3969 -0.7702  0.1733
10223SOL    HW132089   5.542   0.539   4.144 -0.1510  1.0277  1.2627
10223SOL    HW232090   5.496   0.438   4.246  0.5881  0.6633  1.2487
10224SOL     OW32091   2.986   2.136   3.005  0.2503  0.3584  0.5519
10224SOL    HW132092   3.036   2.107   3.082  1.2441  1.8498  0.5121
10224SOL    HW232093   3.016   2.079   2.934 -1.7109 -2.0014  1.4729
10225SOL     OW32094   1.110   3.608   7.418  0.4499  0.4198  0.1598
10225SOL    HW132095   1.096   3.517   7.389  1.6946  0.1086  0.4771
10225SOL    HW232096   1.053   3.617   7.494  0.9048 -0.3723  0.6173
10226SOL     OW32097   2.819   6.776   7.255 -0.0492  0.3453 -0.3617
10226SOL    HW132098   2.883   6.787   7.185  0.1620  0.0255 -0.2183
10226SOL    HW232099   2.740   6.820   7.222 -0.2425 -0.5930 -1.1908
10227SOL     OW32100   3.390   7.387   1.618  0.0882  0.2872 -0.0659
10227SOL    HW132101   3.344   7.304   1.622  1.6022 -0.5962 -0.2192
10227SOL    HW232102   3.341   7.439   1.554 -0.5863 -0.6708 -0.3426
10228SOL     OW32103   5.038   2.532   5.019 -0.4079  0.0292 -0.1335
10228SOL    HW132104   5.032   2.438   5.038  1.1458  0.2268  1.5809
10228SOL    HW232105   4.965   2.549   4.959 -2.0499 -1.8616  1.2154
10229SOL     OW32106   1.834   3.428   6.667 -0.2452 -0.2688  0.7024
10229SOL    HW132107   1.749   3.447   6.629 -0.3256 -2.8096 -0.6796
10229SOL    HW232108   1.896   3.477   6.613 -0.6397 -1.0163 -0.4705
10230SOL     OW32109   6.032   7.279   4.693 -0.5229 -0.5677  0.3149
10230SOL    HW132110   6.029   7.232   4.610 -0.4502  2.7949 -1.7759
10230SOL    HW232111   6.124   7.277   4.719 -0.3715 -0.7791 -0.2230
10231SOL     OW32112   5.271   6.097   1.400  0.2559  0.1783 -0.0243
10231SOL    HW132113   5.250   6.034   1.331  1.3947  0.2612 -0.4637
10231SOL    HW232114   5.299   6.175   1.353 -3.0134  1.7740  0.4547
10232SOL     OW32115   7.153   0.181   7.296 -0.0643  0.6367 -0.1330
10232SOL    HW132116   7.169   0.123   7.222 -0.1580  0.9282 -0.3838
10232SOL    HW232117   7.216   0.153   7.363 -2.3472 -2.0581  1.0920
10233SOL     OW32118   0.581   1.394   7.256 -0.0750 -0.2684  0.2425
10233SOL    HW132119   0.525   1.471   7.269 -1.0683 -0.6998 -1.2592
10233SOL    HW232120   0.523   1.328   7.219  0.3047 -2.4280  3.1376
10234SOL     OW32121   5.510   0.362   2.683  0.0034  0.5070 -0.7057
10234SOL    HW132122   5.603   0.371   2.705 -0.5114  1.8168  1.2277
10234SOL    HW232123   5.475   0.304   2.751 -0.5559 -0.1974 -1.5802
10235SOL     OW32124   1.071   6.718   1.178 -0.6610  0.3813 -0.4031
10235SOL    HW132125   1.051   6.783   1.245  0.2233 -0.9282  1.2018
10235SOL    HW232126   1.077   6.635   1.225 -0.1116 -0.6270 -2.1299
10236SOL     OW32127   6.898   0.540   1.241  0.4744  0.4817  0.2690
10236SOL    HW132128   6.836   0.530   1.169 -0.4595  0.3406  1.0804
10236SOL    HW232129   6.982   0.511   1.204  0.3521  1.8630 -1.2341
10237SOL     OW32130   1.164   6.452   6.367 -0.1879 -0.1388  0.4522
10237SOL    HW132131   1.240   6.504   6.340 -0.6286 -0.2214 -1.0176
10237SOL    HW232132   1.184   6.426   6.457  1.1212  0.5714  0.3963
10238SOL     OW32133   1.700   1.805   3.006  0.3661  0.0257  0.5246
10238SOL    HW132134   1.780   1.756   3.025  1.1842  1.0699 -0.0562
10238SOL    HW232135   1.730   1.878   2.952 -1.1883 -0.3088 -0.8520
10239SOL     OW32136   7.335   3.996   3.159  0.3449  0.1509 -0.1492
10239SOL    HW132137   7.258   4.028   3.207  1.1322  1.2665  0.4162
10239SOL    HW232138   7.348   4.061   3.090  1.3882  0.5650  0.4083
10240SOL     OW32139   1.343   0.348   2.964  0.2306 -0.4405  0.2859
10240SOL    HW132140   1.377   0.433   2.989 -2.0253  0.4314  0.6913
10240SOL    HW232141   1.319   0.307   3.047  0.4475 -1.0794  0.0374
10241SOL     OW32142   7.711   6.492   0.069 -0.1954  0.0366  0.2701
10241SOL    HW132143   7.676   6.406   0.044  1.2100 -0.3574 -0.4847
10241SOL    HW232144   7.785   6.471   0.127  0.4503  0.7007 -0.2963
10242SOL     OW32145   3.798   2.791   6.665 -0.4433 -0.0077 -0.0191
10242SOL    HW132146   3.758   2.752   6.743  2.1615 -0.6346  1.1201
10242SOL    HW232147   3.767   2.736   6.593 -1.1427 -0.8247  0.8633
10243SOL     OW32148   7.878   4.882   2.884 -0.3190 -0.1543  0.2498
10243SOL    HW132149   7.848   4.970   2.861  2.2473  0.4748 -1.0645
10243SOL    HW232150   7.933   4.855   2.810  2.9808 -0.7868  2.6718
10244SOL     OW32151   1.696   7.811   6.734 -0.0719  0.1081 -0.2457
10244SOL    HW132152   1.658   7.898   6.723 -0.1815 -0.1009 -1.6941
10244SOL    HW232153   1.629   7.751   6.702 -0.4102 -0.6259  1.6781
10245SOL     OW32154   6.699   8.044   1.103  0.1988 -0.1713  0.2137
10245SOL    HW132155   6.685   8.023   1.196 -1.5695 -1.5116 -0.3033
10245SOL    HW232156   6.774   7.989   1.078 -0.8590 -1.7075  0.2795
10246SOL     OW32157   3.302   4.121   2.592  0.0379 -0.5628 -0.1318
10246SOL    HW132158   3.397   4.128   2.589 -0.0019 -0.2897 -0.6824
10246SOL    HW232159   3.270   4.210   2.579 -0.3504 -0.9989 -2.5410
10247SOL     OW32160   5.837   0.252   1.215 -0.6829 -0.2881 -0.9034
10247SOL    HW132161   5.861   0.343   1.237 -0.7373 -0.3164 -0.7220
10247SOL    HW232162   5.799   0.218   1.296  0.8011 -0.9785 -0.4751
10248SOL     OW32163   5.231   1.835   5.286  0.1250 -0.6194  0.3723
10248SOL    HW132164   5.189   1.788   5.215 -0.2719 -1.1568  0.9500
10248SOL    HW232165   5.234   1.772   5.358 -1.7104  0.6417  1.6474
10249SOL     OW32166   2.664   5.914   3.920  0.5368  0.2219 -0.1987
10249SOL    HW132167   2.615   5.936   3.840  2.0242  1.9001 -0.7163
10249SOL    HW232168   2.686   5.821   3.909 -3.0873 -0.9169  0.4581
10250SOL     OW32169   3.202   5.476   7.426 -0.2318 -0.0816 -0.7777
10250SOL    HW132170   3.245   5.422   7.360  1.0889 -1.2248  0.9173
10250SOL    HW232171   3.260   5.471   7.502 -1.5125  1.4584  0.3682
10251SOL     OW32172   5.311   2.972   3.642 -0.1846  0.1709 -0.3906
10251SOL    HW132173   5.348   2.918   3.572 -0.9489 -1.7591  0.6072
10251SOL    HW232174   5.333   2.925   3.723 -1.2994  1.1118  0.4967
10252SOL     OW32175   7.068   6.985   3.684  0.3587  0.3966  0.0120
10252SOL    HW132176   7.045   6.921   3.752 -1.5890 -0.0212 -0.9816
10252SOL    HW232177   7.078   7.067   3.732 -1.3533  0.1830  0.8104
10253SOL     OW32178   4.938   2.078   3.861 -0.4431  0.4905  0.2526
10253SOL    HW132179   4.898   2.133   3.793  0.9880  0.7440 -0.4333
10253SOL    HW232180   4.954   1.995   3.817  0.4975  0.6576  0.2543
10254SOL     OW32181   5.993   7.763   0.507 -0.2549 -0.2839  0.3168
10254SOL    HW132182   6.077   7.735   0.544  0.9432  0.5953 -1.5782
10254SOL    HW232183   5.964   7.689   0.455 -0.4748 -0.4562  0.6842
10255SOL     OW32184   4.545   3.902   5.039  0.3875 -1.0514 -0.3645
10255SOL    HW132185   4.457   3.906   5.076  0.6160  0.2570  0.0785
10255SOL    HW232186   4.599   3.865   5.109  1.1188  2.8227  1.3741
10256SOL     OW32187   0.833   3.801   4.922 -0.0303 -0.4886 -0.2893
10256SOL    HW132188   0.855   3.860   4.850  1.1013 -0.5976 -0.0447
10256SOL    HW232189   0.750   3.834   4.955  0.3873  0.7308 -0.4101
10257SOL     OW32190   3.518   1.084   1.181 -0.3297 -0.3491  0.9711
10257SOL    HW132191   3.499   1.052   1.092 -0.4318  1.6397  0.2316
10257SOL    HW232192   3.431   1.102   1.218 -0.2495 -0.4114  1.1891
10258SOL     OW32193   5.929   7.981   2.921 -0.1128 -0.1747 -0.3425
10258SOL    HW132194   5.950   7.963   2.829  0.5703 -1.8344  0.0946
10258SOL    HW232195   5.877   7.906   2.948  1.1404 -0.5927  1.0675
10259SOL     OW32196   0.888   4.494   5.270  0.0143  0.1642 -0.0432
10259SOL    HW132197   0.909   4.587   5.260 -2.5136  0.8557  0.3199
10259SOL    HW232198   0.894   4.458   5.182  1.0755  0.6199 -0.1789
10260SOL     OW32199   1.833   4.830   4.383  0.2293  0.3232  0.4007
10260SOL    HW132200   1.913   4.785   4.411  0.4188  0.3215 -0.1317
10260SOL    HW232201   1.768   4.808   4.450  0.3350 -0.6842  0.1794
10261SOL     OW32202   6.612   0.187   7.810 -0.1296  0.0600 -0.2596
10261SOL    HW132203   6.690   0.237   7.835  0.2194  0.1669 -1.5289
10261SOL    HW232204   6.540   0.231   7.856  0.4702  0.3098  0.4628
10262SOL     OW32205   6.139   3.088   5.774 -0.2824 -0.0576  0.4348
10262SOL    HW132206   6.175   3.170   5.807 -0.2213  0.2374 -0.3590
10262SOL    HW232207   6.057   3.077   5.822 -1.9281  2.0894 -1.6440
10263SOL     OW32208   3.362   3.619   4.167  0.7157 -0.6165  0.0445
10263SOL    HW132209   3.284   3.587   4.122  0.2790 -0.7185  0.8450
10263SOL    HW232210   3.400   3.684   4.108 -0.6631  0.3301  0.1649
10264SOL     OW32211   4.811   2.898   7.343 -0.0902  0.4759  0.6374
10264SOL    HW132212   4.725   2.914   7.303 -0.1433 -2.5775 -0.7097
10264SOL    HW232213   4.791   2.875   7.433 -0.6622  0.1739  0.4394
10265SOL     OW32214   7.361   0.785   2.336 -0.0344 -0.2201 -0.5861
10265SOL    HW132215   7.310   0.741   2.267 -2.6972  0.1882  0.9705
10265SOL    HW232216   7.408   0.715   2.380 -0.9233 -0.9557 -0.7728
10266SOL     OW32217   1.976   1.234   0.720  0.2096  0.2352  0.2802
10266SOL    HW132218   1.951   1.226   0.628 -0.5967 -0.2683  0.5334
10266SOL    HW232219   1.910   1.183   0.767  1.7920 -1.2877  0.9738
10267SOL     OW32220   5.473   1.809   3.046  0.0397 -0.3371 -0.0170
10267SOL    HW132221   5.385   1.771   3.040  0.8030 -2.2975  0.5165
10267SOL    HW232222   5.502   1.819   2.955 -0.4020 -0.4570 -0.1717
10268SOL     OW32223   4.227   3.999   4.739  0.1190 -0.1257  0.0349
10268SOL    HW132224   4.205   4.050   4.816  0.4628 -0.9031  0.6593
10268SOL    HW232225   4.145   3.958   4.713  0.2950 -1.0290  0.8687
10269SOL     OW32226   5.983   1.703   0.668  0.1671  0.0400 -0.9529
10269SOL    HW132227   6.076   1.726   0.665  0.0202  0.7135 -0.7105
10269SOL    HW232228   5.945   1.743   0.590  0.2415 -1.0376 -1.5538
10270SOL     OW32229   4.136   0.721   4.618  0.0280 -0.1422  0.5706
10270SOL    HW132230   4.136   0.764   4.532  1.5006  0.4953  0.8613
10270SOL    HW232231   4.155   0.792   4.680  0.2200 -0.8080  1.2882
10271SOL     OW32232   2.128   6.363   7.595 -0.7034 -0.0579  0.7607
10271SOL    HW132233   2.146   6.452   7.626 -1.8096  0.3638  0.2592
10271SOL    HW232234   2.066   6.327   7.659  1.9189 -1.5862  2.6215
10272SOL     OW32235   0.485   4.276   6.278  0.1804  0.3352 -0.0834
10272SOL    HW132236   0.436   4.347   6.236  1.0410  1.0383  0.0771
10272SOL    HW232237   0.448   4.268   6.366  0.3434  0.8526  0.0313
10273SOL     OW32238   5.374   2.535   2.657  0.1539 -0.0286  0.2036
10273SOL    HW132239   5.340   2.491   2.579  1.0641  0.8068 -0.6809
10273SOL    HW232240   5.296   2.570   2.701 -0.3802 -0.6729 -0.2063
10274SOL     OW32241   1.834   8.016   6.317  0.2631 -0.1269 -0.6361
10274SOL    HW132242   1.898   7.946   6.333 -1.4973 -1.6545  0.0398
10274SOL    HW232243   1.773   7.979   6.254  0.1043  1.3788 -1.4222
10275SOL     OW32244   0.226   1.723   5.006 -0.2613  0.2349 -0.1084
10275SOL    HW132245   0.135   1.750   4.992 -0.4110 -0.8392 -1.4364
10275SOL    HW232246   0.223   1.627   5.008  0.7035  0.1982  1.0528
10276SOL     OW32247   7.128   4.618   5.133 -0.0539  0.0867 -0.4067
10276SOL    HW132248   7.143   4.608   5.040  0.9120 -1.0714 -0.1452
10276SOL    HW232249   7.122   4.528   5.167  1.1145  0.4526  0.8597
10277SOL     OW32250   6.196   4.096   3.024 -0.4640  0.8766 -0.7254
10277SOL    HW132251   6.176   4.060   2.938  0.7141  0.0201 -0.6653
10277SOL    HW232252   6.287   4.123   3.019 -0.0085 -0.3093  0.5935
10278SOL     OW32253   1.029   4.317   0.725 -0.5276  0.2862 -0.6870
10278SOL    HW132254   0.997   4.407   0.732  0.3449  0.5262  1.1131
10278SOL    HW232255   0.973   4.267   0.784 -1.7699 -0.6354 -2.5694
10279SOL     OW32256   7.418   7.154   5.157 -0.8760 -0.0467  0.4825
10279SOL    HW132257   7.500   7.106   5.148 -1.0765 -0.0489 -1.7774
10279SOL    HW232258   7.438   7.223   5.221  0.4847 -0.8144  0.9265
10280SOL     OW32259   6.438   7.501   0.233 -0.1115  0.0936 -0.4972
10280SOL    HW132260   6.523   7.536   0.204  0.3736 -0.4012  0.2962
10280SOL    HW232261   6.459   7.444   0.306 -1.3866  2.1026  1.5722
10281SOL     OW32262   0.601   1.316   3.332 -0.1811  0.0007  0.3649
10281SOL    HW132263   0.531   1.262   3.297  1.2001 -1.2375 -0.6337
10281SOL    HW232264   0.602   1.394   3.276 -0.3826 -0.2539  0.0065
10282SOL     OW32265   2.246   6.275   6.727  0.4644  0.2686  0.1133
10282SOL    HW132266   2.289   6.306   6.807  2.9689 -1.5354 -0.4072
10282SOL    HW232267   2.172   6.222   6.759  0.9256  0.2634  1.2209
10283SOL     OW32268   3.387   5.362   3.115 -0.2283 -0.5140 -0.3700
10283SOL    HW132269   3.352   5.338   3.201 -0.8483  0.6981 -0.2659
10283SOL    HW232270   3.455   5.296   3.097 -0.1780 -0.8475  0.9834
10284SOL     OW32271   2.497   1.335   7.186  0.2504  0.3058 -0.8453
10284SOL    HW132272   2.461   1.423   7.189 -2.1855 -0.5338 -2.4015
10284SOL    HW232273   2.569   1.340   7.124  0.5405  1.2927 -0.4424
10285SOL     OW32274   1.983   0.704   6.831 -0.7386  0.6368 -0.7927
10285SOL    HW132275   1.964   0.648   6.756  0.8562  0.2820 -0.9686
10285SOL    HW232276   1.962   0.650   6.907 -2.2683  0.9617 -0.9564
10286SOL     OW32277   6.702   2.816   4.185 -0.2690  0.0768 -0.3919
10286SOL    HW132278   6.778   2.757   4.191  0.0631  0.3975 -1.2030
10286SOL    HW232279   6.690   2.829   4.091 -1.5682 -0.2542 -0.2895
10287SOL     OW32280   0.517   0.571   2.072  0.2022  0.0997  0.0457
10287SOL    HW132281   0.465   0.491   2.066  1.9227 -1.0676  0.0031
10287SOL    HW232282   0.515   0.594   2.165  0.5961 -0.6323  0.2417
10288SOL     OW32283   0.036   2.765   1.912  0.7704  0.4865  0.0787
10288SOL    HW132284   0.100   2.778   1.842 -1.4327  1.9689 -1.7773
10288SOL    HW232285   0.053   2.836   1.974 -0.5216  2.3795 -1.6252
10289SOL     OW32286   2.632   8.004   1.462  0.5132 -0.0417  0.5823
10289SOL    HW132287   2.597   7.932   1.410 -0.5103  0.7665  0.1358
10289SOL    HW232288   2.710   8.033   1.413  0.5352 -0.3916  0.4065
10290SOL     OW32289   7.146   6.996   2.024  0.6088  0.3454  0.3954
10290SOL    HW132290   7.088   6.933   2.067 -0.1056  1.3706  0.9780
10290SOL    HW232291   7.215   7.011   2.088  1.5283 -0.8308 -0.2747
10291SOL     OW32292   1.667   4.246   2.042  0.3277 -0.3848  0.4971
10291SOL    HW132293   1.714   4.163   2.033 -0.7689 -1.1111  1.1667
10291SOL    HW232294   1.580   4.227   2.006 -0.2129  0.2120  1.4631
10292SOL     OW32295   7.604   5.742   2.584  0.0205 -0.7208 -0.1471
10292SOL    HW132296   7.557   5.694   2.652 -1.2019 -2.0447 -1.8403
10292SOL    HW232297   7.596   5.834   2.609 -1.3449 -1.1085  0.9328
10293SOL     OW32298   5.852   0.443   3.599  0.4303  0.4652 -0.5765
10293SOL    HW132299   5.769   0.469   3.559  0.4684  0.3697 -0.7221
10293SOL    HW232300   5.896   0.525   3.621 -0.7903  0.5616  1.8299
10294SOL     OW32301   1.550   5.873   6.439  0.6503 -0.2276 -0.8244
10294SOL    HW132302   1.580   5.964   6.434  3.0778 -0.8310  0.8506
10294SOL    HW232303   1.630   5.821   6.428 -0.6652 -2.2086 -1.7247
10295SOL     OW32304   4.052   2.241   3.354 -0.2104  0.0894 -0.1286
10295SOL    HW132305   4.143   2.272   3.358  0.2172 -1.1840  1.0450
10295SOL    HW232306   4.006   2.294   3.418 -0.1742  0.3528 -0.3174
10296SOL     OW32307   2.962   7.514   4.097  0.8561 -0.0496 -0.5514
10296SOL    HW132308   2.882   7.463   4.110  1.4454 -0.8789 -0.0697
10296SOL    HW232309   3.027   7.449   4.070  1.9501  0.2169  1.2717
10297SOL     OW32310   5.775   1.786   6.938 -0.4643  0.0172  0.3525
10297SOL    HW132311   5.711   1.758   7.004  0.7973 -1.3409  1.0498
10297SOL    HW232312   5.859   1.756   6.972  0.2939 -0.2944 -1.6618
10298SOL     OW32313   0.230   2.034   3.468 -0.4552  0.1511  0.2275
10298SOL    HW132314   0.249   1.979   3.544  1.8917  1.3599  0.5849
10298SOL    HW232315   0.281   1.996   3.397 -1.6576 -0.2271 -0.4620
10299SOL     OW32316   1.589   0.267   6.963  0.3253 -0.2496 -0.3646
10299SOL    HW132317   1.588   0.181   6.921  0.9483 -0.8781  0.8275
10299SOL    HW232318   1.502   0.275   7.002 -0.4664  0.6054 -2.2349
10300SOL     OW32319   3.383   4.224   2.216  0.2734  0.7158 -0.3732
10300SOL    HW132320   3.315   4.269   2.266 -0.3059 -0.0168 -0.4756
10300SOL    HW232321   3.374   4.258   2.127 -0.0186  0.5733 -0.4019
10301SOL     OW32322   5.425   1.122   8.032  0.3931  0.0030  0.2129
10301SOL    HW132323   5.493   1.064   7.999 -0.0768 -0.9346  0.8229
10301SOL    HW232324   5.444   1.207   7.993  0.4233 -0.8201 -1.6262
10302SOL     OW32325   4.857   6.461   2.697 -0.4431 -0.7121 -0.1699
10302SOL    HW132326   4.866   6.403   2.622  2.3268  0.1843 -0.6320
10302SOL    HW232327   4.878   6.548   2.663 -2.8768  0.3850  0.8679
10303SOL     OW32328   5.569   4.462   5.343  0.1224 -0.0288  0.3347
10303SOL    HW132329   5.517   4.386   5.367 -1.3616  0.9328  0.3407
10303SOL    HW232330   5.626   4.431   5.273 -2.1971 -0.6009 -1.4247
10304SOL     OW32331   2.950   5.627   0.994  0.0316  0.3977 -0.0204
10304SOL    HW132332   2.866   5.639   0.950 -0.5861  0.3400  1.1323
10304SOL    HW232333   2.991   5.554   0.948 -0.4383  0.5717 -0.7282
10305SOL     OW32334   7.877   6.033   3.833 -0.6578 -0.5568 -0.1182
10305SOL    HW132335   7.883   6.108   3.773 -2.1536 -0.7663 -0.5876
10305SOL    HW232336   7.912   6.066   3.916  1.2763 -0.2041 -1.0295
10306SOL     OW32337   6.699   6.549   2.069  0.1495 -0.0093 -0.3540
10306SOL    HW132338   6.639   6.576   2.138 -0.5291  0.0690 -0.9630
10306SOL    HW232339   6.714   6.456   2.085  0.2607  0.0845  0.0908
10307SOL     OW32340   4.859   6.765   5.632 -0.3473  0.2212 -0.0504
10307SOL    HW132341   4.884   6.676   5.608  1.1156  0.5603  0.1115
10307SOL    HW232342   4.777   6.781   5.585  0.7089 -0.2816 -2.1880
10308SOL     OW32343   6.540   7.928   5.377  0.0135 -0.3301 -0.9495
10308SOL    HW132344   6.508   7.992   5.314  0.0717 -0.2387 -0.8864
10308SOL    HW232345   6.568   7.980   5.452 -1.1020 -0.5154 -0.3909
10309SOL     OW32346   7.608   0.672   0.447  0.3191 -0.2109 -0.2014
10309SOL    HW132347   7.614   0.603   0.380  0.5489  0.9177 -1.3762
10309SOL    HW232348   7.520   0.662   0.484  0.4971 -1.3965 -0.0303
10310SOL     OW32349   5.129   7.249   6.440  0.1406  0.0364 -0.0864
10310SOL    HW132350   5.046   7.289   6.464 -0.6571 -1.3692 -0.4177
10310SOL    HW232351   5.185   7.263   6.516 -0.7357  0.0614  0.5678
10311SOL     OW32352   2.521   2.608   3.702 -0.3358 -0.5313 -0.3239
10311SOL    HW132353   2.507   2.689   3.751 -1.3679  0.3190 -1.9358
10311SOL    HW232354   2.606   2.621   3.659 -0.9700  0.1838 -1.4124
10312SOL     OW32355   3.917   3.374   7.166  0.4636 -0.2240 -0.2811
10312SOL    HW132356   4.006   3.390   7.198  0.5859  0.8296 -1.1061
10312SOL    HW232357   3.861   3.420   7.229  0.5374 -0.3503 -0.1214
10313SOL     OW32358   0.475   0.075   7.496 -0.9337 -0.0217 -0.4322
10313SOL    HW132359   0.447   0.070   7.588  1.1822  0.0924  0.2845
10313SOL    HW232360   0.544   0.010   7.489  0.2028  1.2324 -1.4276
10314SOL     OW32361   7.045   4.617   1.881  0.0206 -0.5222  0.1232
10314SOL    HW132362   7.090   4.688   1.927 -0.1792  0.6590 -1.4267
10314SOL    HW232363   6.967   4.601   1.934  0.9204 -0.8102  1.4244
10315SOL     OW32364   5.230   4.701   4.362 -0.2235  0.4535 -0.0644
10315SOL    HW132365   5.230   4.759   4.438  0.2215  0.1364  0.1770
10315SOL    HW232366   5.273   4.621   4.392 -0.2173  0.2555 -0.5931
10316SOL     OW32367   0.443   3.216   5.384 -0.5847  0.0991 -0.3373
10316SOL    HW132368   0.471   3.300   5.420 -0.4619  0.2468 -0.7672
10316SOL    HW232369   0.375   3.185   5.444 -0.5125  0.4256 -0.0870
10317SOL     OW32370   7.421   0.515   3.266 -0.3066 -0.1333 -0.4675
10317SOL    HW132371   7.350   0.481   3.320  0.0185  1.1549  0.8195
10317SOL    HW232372   7.477   0.440   3.250 -0.0815 -0.4387  1.5414
10318SOL     OW32373   4.013   3.141   5.537  0.6252 -0.1025 -0.7251
10318SOL    HW132374   3.969   3.226   5.534  0.8906  0.1282  1.0401
10318SOL    HW232375   3.942   3.077   5.527  0.3746  0.2980 -1.6402
10319SOL     OW32376   1.733   1.053   4.013 -0.0054  0.9972 -0.2413
10319SOL    HW132377   1.789   0.990   4.059 -0.3922  1.2311  0.5556
10319SOL    HW232378   1.649   1.049   4.059  0.2184  2.7134  0.3511
10320SOL     OW32379   2.449   2.560   5.158 -0.0323 -0.0618 -0.4457
10320SOL    HW132380   2.489   2.532   5.241 -1.9938 -1.0224  0.2297
10320SOL    HW232381   2.509   2.526   5.091  0.1453 -1.7896  0.5154
10321SOL     OW32382   3.579   0.311   3.429  0.2124 -0.3388 -0.2046
10321SOL    HW132383   3.615   0.270   3.507 -0.3315  0.5064  0.5116
10321SOL    HW232384   3.612   0.258   3.356  1.4847 -0.6004  0.5309
10322SOL     OW32385   7.344   7.979   0.562  0.2267  0.4792 -0.2930
10322SOL    HW132386   7.290   8.023   0.627  0.4243 -1.7035  1.4814
10322SOL    HW232387   7.313   8.013   0.478 -0.2406  3.1920  0.8729
10323SOL     OW32388   3.532   2.055   3.876 -0.3978 -0.2759 -0.1722
10323SOL    HW132389   3.535   2.057   3.972 -1.8344  0.8025 -0.1216
10323SOL    HW232390   3.564   2.142   3.850 -1.6577  0.0676 -0.5984
10324SOL     OW32391   4.894   6.541   3.216 -0.3707  0.5694 -0.0178
10324SOL    HW132392   4.982   6.572   3.196 -1.0077  1.3045 -1.7854
10324SOL    HW232393   4.888   6.550   3.311  1.8064 -0.4915  0.3016
10325SOL     OW32394   6.682   4.189   1.688 -0.6702  0.0032  0.0001
10325SOL    HW132395   6.593   4.171   1.660 -0.6879 -0.6174  0.4210
10325SOL    HW232396   6.736   4.125   1.642 -0.2863  1.0988 -1.1251
10326SOL     OW32397   0.761   2.362   0.257 -0.0076  0.2389  0.1934
10326SOL    HW132398   0.698   2.418   0.302 -1.2889 -1.1744  0.2362
10326SOL    HW232399   0.803   2.421   0.194 -1.3299  1.2480  0.1940
10327SOL     OW32400   3.762   6.250   5.350 -0.1306 -0.3086 -0.7359
10327SOL    HW132401   3.763   6.282   5.440  0.9570 -2.0321 -0.1046
10327SOL    HW232402   3.729   6.325   5.299 -0.7041  0.7190  1.0489
10328SOL     OW32403   6.429   7.611   1.159 -0.4960  0.5728  0.5789
10328SOL    HW132404   6.476   7.531   1.134  1.1306  0.7757  2.7245
10328SOL    HW232405   6.456   7.675   1.093 -0.8090 -0.2799 -0.4142
10329SOL     OW32406   2.704   4.594   2.334  0.4476 -0.5873 -0.1953
10329SOL    HW132407   2.744   4.673   2.371  1.3951 -0.7143 -0.9167
10329SOL    HW232408   2.739   4.522   2.386 -0.7225 -0.5341  0.7215
10330SOL     OW32409   2.945   5.011   3.198  0.1014 -0.0356  0.2326
10330SOL    HW132410   2.895   5.019   3.116 -2.7766 -0.4167  1.8032
10330SOL    HW232411   2.924   5.090   3.247  1.3733 -0.0477  0.8283
10331SOL     OW32412   6.804   7.358   2.396  0.3636  0.1197  0.2981
10331SOL    HW132413   6.872   7.305   2.353  0.8075  1.0716 -0.1958
10331SOL    HW232414   6.812   7.335   2.489  0.6419 -0.5725  0.1151
10332SOL     OW32415   1.137   7.793   4.952 -0.5845  0.0317 -0.1035
10332SOL    HW132416   1.106   7.833   5.033  0.2411  0.8464 -0.1660
10332SOL    HW232417   1.149   7.700   4.973 -0.4410  0.2260  0.6886
10333SOL     OW32418   6.701   7.975   1.367  0.1206  0.5959  0.0041
10333SOL    HW132419   6.659   8.060   1.382  0.5646  1.0906 -1.4693
10333SOL    HW232420   6.742   7.954   1.451  0.9915  2.3964  0.0639
10334SOL     OW32421   7.119   2.096   0.608 -0.0557  0.4633 -0.2398
10334SOL    HW132422   7.127   2.190   0.592 -0.1028  0.3930 -0.6764
10334SOL    HW232423   7.072   2.090   0.691 -1.1755  0.8133 -0.8431
10335SOL     OW32424   4.805   8.018   5.393  0.2933  0.2183  0.2345
10335SOL    HW132425   4.758   7.959   5.453  0.8183 -1.3526 -0.8299
10335SOL    HW232426   4.863   7.960   5.344 -0.2894  1.4136 -1.9757
10336SOL     OW32427   7.969   3.927   7.381  0.3619 -0.8086 -0.4057
10336SOL    HW132428   7.912   3.862   7.422  1.1558 -1.3816 -0.1901
10336SOL    HW232429   7.919   3.958   7.305 -0.7217 -0.4285  0.4433
10337SOL     OW32430   7.646   2.780   6.753  0.7931 -0.0133  0.0481
10337SOL    HW132431   7.575   2.779   6.688  1.0503  0.6691 -0.2499
10337SOL    HW232432   7.707   2.847   6.721  0.6899  0.6723  1.2291
10338SOL     OW32433   3.842   1.156   5.748 -0.3265 -0.0464 -0.3089
10338SOL    HW132434   3.844   1.073   5.700  0.0551  0.7715 -1.8003
10338SOL    HW232435   3.760   1.153   5.797  0.1059 -1.6652  0.3748
10339SOL     OW32436   4.657   0.962   1.629  0.4501 -0.6496  0.1269
10339SOL    HW132437   4.743   0.928   1.656  1.2911 -0.0564 -1.6172
10339SOL    HW232438   4.637   0.913   1.549 -0.1783  0.1943 -0.2459
10340SOL     OW32439   3.424   0.361   4.279 -0.5696  0.4205  0.3093
10340SOL    HW132440   3.420   0.266   4.269 -1.3934  0.0818  2.9943
10340SOL    HW232441   3.480   0.391   4.207  2.5705 -2.4541  1.3491
10341SOL     OW32442   4.040   6.473   4.028  0.5657  0.4031 -0.3760
10341SOL    HW132443   4.120   6.421   4.025 -1.8964 -3.8623 -2.5195
10341SOL    HW232444   4.009   6.474   3.937 -1.7352  2.0233  0.3390
10342SOL     OW32445   5.489   3.275   4.003 -0.3615 -0.1688  0.2117
10342SOL    HW132446   5.473   3.332   4.078 -1.4030 -1.0589  0.6964
10342SOL    HW232447   5.452   3.323   3.929 -2.1019 -0.5856  0.7628
10343SOL     OW32448   1.828   3.862   3.223  0.0723  0.2651  0.2806
10343SOL    HW132449   1.833   3.894   3.313  0.0119  0.1454  0.3262
10343SOL    HW232450   1.797   3.938   3.173 -0.7308  0.0921  0.4959
10344SOL     OW32451   5.141   5.826   1.641 -0.3070  0.3060  0.0662
10344SOL    HW132452   5.068   5.852   1.697 -0.8423  0.2147 -0.5694
10344SOL    HW232453   5.111   5.744   1.600  0.7985 -0.5995  1.0057
10345SOL     OW32454   0.199   3.634   6.412  0.0703 -0.1896 -0.2962
10345SOL    HW132455   0.242   3.634   6.498 -2.7458 -1.6188  1.2338
10345SOL    HW232456   0.194   3.542   6.388 -0.4599  0.0957 -1.3177
10346SOL     OW32457   4.712   3.398   4.598 -0.1208  0.1820 -0.5921
10346SOL    HW132458   4.775   3.339   4.557  1.3436  1.2335  0.0444
10346SOL    HW232459   4.631   3.348   4.602  1.4694 -2.4651  1.5068
10347SOL     OW32460   5.080   7.885   1.961  0.0429  0.1944 -0.7889
10347SOL    HW132461   5.098   7.979   1.963  1.4339  0.1143 -3.6617
10347SOL    HW232462   5.036   7.872   1.876  0.3701 -1.8107 -0.6853
10348SOL     OW32463   3.793   3.265   6.469  0.4690 -0.2676 -0.1148
10348SOL    HW132464   3.732   3.320   6.519  1.7511  3.1875 -2.0138
10348SOL    HW232465   3.820   3.197   6.530 -1.2446  1.2086  2.4577
10349SOL     OW32466   1.518   7.990   0.668  0.2476 -0.1141  0.1957
10349SOL    HW132467   1.484   7.902   0.683  0.1196 -0.0430  0.3281
10349SOL    HW232468   1.613   7.982   0.681  0.4174 -0.5274 -1.1719
10350SOL     OW32469   2.384   3.485   5.545  0.8179 -1.0687  0.3089
10350SOL    HW132470   2.362   3.468   5.637 -0.4814  0.1493  0.2538
10350SOL    HW232471   2.306   3.529   5.510  1.2657 -1.5986 -1.4021
10351SOL     OW32472   4.505   1.558   2.308  0.0109  0.4217 -0.0404
10351SOL    HW132473   4.429   1.571   2.252  0.5629  1.2684 -0.5988
10351SOL    HW232474   4.471   1.506   2.382 -0.4149 -2.0557 -1.8360
10352SOL     OW32475   5.850   5.838   6.278 -0.1008 -0.0287 -0.1135
10352SOL    HW132476   5.755   5.843   6.266  0.0149  1.5414 -0.6985
10352SOL    HW232477   5.879   5.772   6.215 -0.8653 -1.0269  0.5631
10353SOL     OW32478   4.247   6.609   6.629 -0.4892 -0.3861  0.5745
10353SOL    HW132479   4.260   6.577   6.719  0.3244  0.5520  0.8149
10353SOL    HW232480   4.200   6.538   6.585 -0.6706 -0.9763  1.6669
10354SOL     OW32481   0.385   7.050   0.198  0.3898 -0.3257  0.0387
10354SOL    HW132482   0.457   7.061   0.135 -0.8600 -0.6665 -1.5270
10354SOL    HW232483   0.354   7.139   0.215  0.3291 -0.2731 -0.3354
10355SOL     OW32484   6.943   1.657   6.929 -0.0684 -0.0559 -0.5310
10355SOL    HW132485   6.983   1.653   7.016 -0.2739 -2.6003 -0.4750
10355SOL    HW232486   7.017   1.649   6.868 -0.0213  0.6704 -0.5739
10356SOL     OW32487   3.598   2.458   4.143 -0.7032  0.0847  0.2599
10356SOL    HW132488   3.505   2.447   4.161 -1.1255  2.4921 -0.1231
10356SOL    HW232489   3.601   2.502   4.058  0.8508 -1.1366 -0.3643
10357SOL     OW32490   2.119   3.863   5.419 -0.3976  0.0633  0.6716
10357SOL    HW132491   2.023   3.862   5.418 -0.4042  0.4973 -0.0649
10357SOL    HW232492   2.142   3.954   5.399  0.1643 -0.3726 -0.7993
10358SOL     OW32493   5.937   1.404   4.905  0.0808 -0.3468 -0.7666
10358SOL    HW132494   5.940   1.497   4.925  1.7496 -0.1556 -1.7084
10358SOL    HW232495   5.939   1.360   4.990 -0.6552  0.4585 -0.3256
10359SOL     OW32496   6.272   5.928   1.164  0.3905 -0.0488  0.3703
10359SOL    HW132497   6.331   5.943   1.238  1.5355 -0.0313 -0.4991
10359SOL    HW232498   6.331   5.901   1.093 -0.8086 -1.2600 -0.1932
10360SOL     OW32499   5.537   4.139   6.770 -0.3364 -0.8222  0.2415
10360SOL    HW132500   5.482   4.082   6.823 -2.0660  1.6965  1.4071
10360SOL    HW232501   5.608   4.166   6.829 -1.4207  0.7946  0.8805
10361SOL     OW32502   4.251   1.420   1.097 -0.3155 -0.4981  0.8030
10361SOL    HW132503   4.204   1.338   1.084  0.2710 -0.7511  0.2147
10361SOL    HW232504   4.246   1.465   1.013 -0.1564 -0.1822  0.9591
10362SOL     OW32505   3.042   1.176   5.237 -0.4454 -0.0566 -0.1988
10362SOL    HW132506   3.022   1.187   5.330 -0.3132  0.7249 -0.2566
10362SOL    HW232507   3.011   1.088   5.216  0.9540 -0.8766  0.9634
10363SOL     OW32508   4.254   2.273   6.403 -0.1387 -0.3750 -0.2391
10363SOL    HW132509   4.236   2.245   6.493 -0.9121 -0.7002 -0.4824
10363SOL    HW232510   4.262   2.368   6.408  3.3982 -0.5913  0.7619
10364SOL     OW32511   4.049   1.530   4.404 -0.1840 -0.1476 -0.0605
10364SOL    HW132512   4.043   1.589   4.479 -0.2255 -0.9132  0.5482
10364SOL    HW232513   4.002   1.576   4.334 -0.7999  0.2477  0.5969
10365SOL     OW32514   4.708   2.696   6.276  0.4199  0.3297 -0.0622
10365SOL    HW132515   4.619   2.718   6.300  0.1119 -0.4723 -0.4310
10365SOL    HW232516   4.752   2.678   6.359  0.3062  0.9315  0.1358
10366SOL     OW32517   6.415   4.023   3.721 -0.5490  0.0106 -0.3636
10366SOL    HW132518   6.429   3.967   3.645 -0.1674  1.2835 -1.2615
10366SOL    HW232519   6.371   4.100   3.686 -0.4292  0.5859  0.7175
10367SOL     OW32520   6.178   7.262   0.538 -0.1413  0.2083  0.1786
10367SOL    HW132521   6.230   7.188   0.508 -1.6111 -0.7040 -0.1948
10367SOL    HW232522   6.180   7.255   0.634  2.0261  1.3679  0.2994
10368SOL     OW32523   3.969   5.850   4.747 -0.1033 -0.2468 -0.4729
10368SOL    HW132524   3.969   5.785   4.817 -0.5337  1.5955  1.3110
10368SOL    HW232525   4.055   5.840   4.706  0.7499 -0.4177  1.2453
10369SOL     OW32526   6.471   5.584   4.369  0.3406  0.1543 -0.0485
10369SOL    HW132527   6.454   5.491   4.354 -1.2548  0.7677 -2.7140
10369SOL    HW232528   6.388   5.618   4.405 -0.1200  1.0106 -1.8132
10370SOL     OW32529   7.701   5.164   6.993  1.2225 -1.1806 -0.2638
10370SOL    HW132530   7.643   5.228   6.953 -0.6409 -1.2800  2.0825
10370SOL    HW232531   7.783   5.211   7.008  0.2840  0.3069  0.3319
10371SOL     OW32532   0.244   1.655   5.321  0.7207  0.2930 -0.1185
10371SOL    HW132533   0.166   1.614   5.284 -0.7772 -0.1589  3.2340
10371SOL    HW232534   0.234   1.647   5.416  4.0199  1.8046  0.5175
10372SOL     OW32535   5.821   1.318   6.208 -0.4384 -0.5013 -0.0188
10372SOL    HW132536   5.835   1.381   6.279  1.0932  1.1573 -1.6760
10372SOL    HW232537   5.900   1.264   6.208  0.7721  1.1142 -1.8999
10373SOL     OW32538   7.285   0.662   7.324 -0.1481 -1.2226 -0.2203
10373SOL    HW132539   7.207   0.607   7.323  0.1688 -1.6742 -0.1155
10373SOL    HW232540   7.348   0.617   7.269  0.0671 -0.8934 -0.2495
10374SOL     OW32541   8.005   6.124   1.457  0.2514 -0.0890  0.1297
10374SOL    HW132542   8.062   6.113   1.381 -0.4982 -1.9908 -0.2201
10374SOL    HW232543   8.008   6.218   1.476  2.5632  0.0460 -0.5714
10375SOL     OW32544   3.799   7.252   7.167 -0.0543  0.1311 -0.3183
10375SOL    HW132545   3.860   7.211   7.229 -1.1435  0.7274  1.1729
10375SOL    HW232546   3.728   7.188   7.158 -0.3215  0.4275 -0.2911
10376SOL     OW32547   6.619   2.778   5.208  0.1633  0.1489  0.4460
10376SOL    HW132548   6.544   2.719   5.208 -0.3360  0.7576  1.4330
10376SOL    HW232549   6.666   2.758   5.288  0.6149  0.3217  0.2268
10377SOL     OW32550   6.806   3.188   7.129  0.2369 -0.0626 -0.0259
10377SOL    HW132551   6.761   3.272   7.134  0.4139  0.0419 -0.2043
10377SOL    HW232552   6.771   3.138   7.203 -1.4299 -0.5958 -1.1183
10378SOL     OW32553   2.482   5.616   4.510 -0.1772 -0.5704  0.2985
10378SOL    HW132554   2.443   5.686   4.457  0.8313  0.6040  1.0420
10378SOL    HW232555   2.408   5.562   4.536 -1.1648  0.8658  0.5996
10379SOL     OW32556   6.204   1.532   5.130 -0.4266 -0.3011  0.4156
10379SOL    HW132557   6.170   1.579   5.054 -0.6936 -0.8662  0.1788
10379SOL    HW232558   6.132   1.474   5.156 -0.5294  0.2492  1.4136
10380SOL     OW32559   5.301   4.399   4.050  0.2111  0.1995 -0.1150
10380SOL    HW132560   5.362   4.360   3.988 -2.2017  1.2881 -3.4382
10380SOL    HW232561   5.286   4.488   4.017 -0.9187  1.0014  2.2940
10381SOL     OW32562   1.551   3.939   1.274  0.1753 -0.0374  0.4402
10381SOL    HW132563   1.635   3.911   1.236 -0.0981 -0.1616 -0.0776
10381SOL    HW232564   1.502   3.976   1.200  0.2601  1.1900  0.9845
10382SOL     OW32565   1.277   1.772   0.708  0.0714 -0.0298 -0.1333
10382SOL    HW132566   1.336   1.758   0.782 -2.4931 -1.0424  1.8526
10382SOL    HW232567   1.313   1.717   0.638  1.1535 -1.0632  1.1751
10383SOL     OW32568   4.427   1.662   5.680  0.1002  0.6851 -0.1135
10383SOL    HW132569   4.489   1.668   5.607  0.8219  2.6373  0.5831
10383SOL    HW232570   4.372   1.587   5.658  2.5600 -1.0560 -0.8703
10384SOL     OW32571   5.409   2.400   2.961  1.0831  0.5948 -0.1906
10384SOL    HW132572   5.358   2.323   2.985  1.5066 -0.2303 -1.7902
10384SOL    HW232573   5.349   2.455   2.912  1.3619  0.1937 -1.0115
10385SOL     OW32574   3.813   3.002   2.293  0.1049  0.3231 -0.1132
10385SOL    HW132575   3.837   2.943   2.221  0.9389  0.0836  0.3420
10385SOL    HW232576   3.807   3.088   2.253  0.2336  0.1379 -0.5375
10386SOL     OW32577   4.838   3.844   7.968  0.3861 -0.1224  0.2370
10386SOL    HW132578   4.873   3.806   7.887  1.1056  0.2087  0.3822
10386SOL    HW232579   4.898   3.814   8.036  0.6348  0.7942  0.4356
10387SOL     OW32580   7.470   7.546   1.327 -0.0425  0.3713 -0.7392
10387SOL    HW132581   7.429   7.612   1.271 -1.3107  0.0244 -0.2363
10387SOL    HW232582   7.512   7.596   1.397 -1.5134  0.6421 -0.0170
10388SOL     OW32583   1.919   2.505   5.186 -0.0762 -0.4310  0.0258
10388SOL    HW132584   1.970   2.462   5.117  1.6086 -1.3471  1.7372
10388SOL    HW232585   1.850   2.552   5.139  1.6541 -0.0625 -2.3393
10389SOL     OW32586   4.873   0.157   2.663  0.8088  0.3744  0.3535
10389SOL    HW132587   4.855   0.092   2.595 -0.3502  1.8622 -0.8383
10389SOL    HW232588   4.944   0.210   2.627  1.4153  0.0855  1.1031
10390SOL     OW32589   1.259   8.046   3.240 -0.3321  0.2729  0.1592
10390SOL    HW132590   1.262   8.007   3.152  0.2100  0.0085  0.2949
10390SOL    HW232591   1.310   7.987   3.295  0.0818  0.9052  0.4724
10391SOL     OW32592   5.968   7.562   2.841 -0.4438 -0.3214  0.2855
10391SOL    HW132593   5.933   7.563   2.752 -1.2648 -4.2643  0.3569
10391SOL    HW232594   5.897   7.598   2.895 -0.4752  0.8260 -0.4918
10392SOL     OW32595   3.474   1.813   7.833 -0.3331  0.2190  0.0801
10392SOL    HW132596   3.423   1.818   7.913 -0.4009  2.0389 -0.0504
10392SOL    HW232597   3.563   1.792   7.862 -0.8956 -2.0618  0.3672
10393SOL     OW32598   1.188   5.115   6.675  0.4088 -0.1545 -0.3393
10393SOL    HW132599   1.174   5.022   6.656 -0.5179  0.1297 -1.1126
10393SOL    HW232600   1.255   5.142   6.613  0.6055 -0.2746 -0.1821
10394SOL     OW32601   3.582   1.252   6.681 -0.3315  0.7156  1.0720
10394SOL    HW132602   3.541   1.175   6.643  0.1673 -0.6727  3.1558
10394SOL    HW232603   3.529   1.270   6.759 -0.7478  2.8383  0.3538
10395SOL     OW32604   2.143   6.300   1.996  0.0226 -0.1512 -0.4244
10395SOL    HW132605   2.199   6.303   1.918  1.3937 -1.1554  0.4818
10395SOL    HW232606   2.173   6.373   2.050  1.8689 -1.8290  0.9382
10396SOL     OW32607   4.385   6.213   0.518 -0.1331 -0.2414 -0.4543
10396SOL    HW132608   4.303   6.175   0.550  0.5878 -0.9370  0.6097
10396SOL    HW232609   4.361   6.301   0.491 -0.9723  0.0683  1.1834
10397SOL     OW32610   4.685   0.198   5.351 -0.0215 -0.2931 -0.3489
10397SOL    HW132611   4.712   0.106   5.360  0.4029 -0.1002  0.4411
10397SOL    HW232612   4.707   0.221   5.261  1.8375 -0.3604  0.0451
10398SOL     OW32613   0.228   0.912   0.045  0.4271 -0.4761 -0.8164
10398SOL    HW132614   0.185   0.901   0.130 -0.3419 -0.1709 -1.1622
10398SOL    HW232615   0.205   0.833  -0.005  2.8923 -1.8661  0.0786
10399SOL     OW32616   5.524   3.069   0.680  0.1987  0.2610  0.0774
10399SOL    HW132617   5.568   3.043   0.599 -1.1290 -2.0388  0.0144
10399SOL    HW232618   5.586   3.046   0.749  1.2744  2.0976 -0.2096
10400SOL     OW32619   0.025   4.387   6.373 -0.0856 -0.4293 -0.4023
10400SOL    HW132620   0.070   4.464   6.406  1.8685 -1.5077 -0.3578
10400SOL    HW232621  -0.033   4.361   6.444  0.7339 -0.1353  0.4038
10401SOL     OW32622   5.429   1.298   4.161 -0.1120 -0.6746  0.4660
10401SOL    HW132623   5.379   1.246   4.223  0.1119  0.9991  2.1458
10401SOL    HW232624   5.509   1.322   4.209  0.6536 -0.3740 -0.9166
10402SOL     OW32625   1.885   5.174   2.680 -0.1318  0.1123 -0.4339
10402SOL    HW132626   1.887   5.169   2.775 -2.0557  2.0562 -0.2043
10402SOL    HW232627   1.970   5.211   2.656  0.7218 -1.2158  0.4061
10403SOL     OW32628   6.901   1.787   4.646 -0.0470 -0.1469  0.0271
10403SOL    HW132629   6.946   1.824   4.570  0.3036  0.9681  0.7399
10403SOL    HW232630   6.970   1.776   4.712 -0.3749 -0.9205  0.2518
10404SOL     OW32631   0.048   5.122   0.303 -0.8653  0.2376 -0.6123
10404SOL    HW132632  -0.008   5.088   0.233 -0.8599 -0.5041 -0.2570
10404SOL    HW232633   0.027   5.068   0.379  0.4090 -0.1201 -0.4986
10405SOL     OW32634   2.297   5.408   2.353 -0.1256  0.2966  0.6134
10405SOL    HW132635   2.330   5.364   2.275  1.2096 -2.1237  2.4060
10405SOL    HW232636   2.207   5.431   2.331  0.7766  1.4633 -2.2577
10406SOL     OW32637   5.652   3.729   7.769 -0.1139 -0.2219 -0.5058
10406SOL    HW132638   5.579   3.679   7.805 -0.5548  1.6612  1.3995
10406SOL    HW232639   5.730   3.691   7.810 -0.1967 -0.8635 -0.9236
10407SOL     OW32640   0.479   3.611   2.650 -0.2443 -0.7495 -0.0926
10407SOL    HW132641   0.467   3.608   2.744  1.5114  0.6116  0.2309
10407SOL    HW232642   0.511   3.700   2.632  0.4355 -1.2892 -1.8336
10408SOL     OW32643   4.495   3.182   4.087  0.0115  0.1057 -0.0538
10408SOL    HW132644   4.454   3.257   4.042 -0.3654  0.3151  0.6261
10408SOL    HW232645   4.588   3.191   4.067 -0.2163 -0.1987 -1.3656
10409SOL     OW32646   6.022   4.797   6.578 -0.1030 -0.2461  0.2533
10409SOL    HW132647   6.070   4.827   6.656  0.8513 -1.0967  0.0104
10409SOL    HW232648   5.958   4.867   6.561 -0.4569 -0.1244  1.9031
10410SOL     OW32649   7.545   4.610   4.840  0.6561 -0.1759  0.0959
10410SOL    HW132650   7.507   4.529   4.808  0.7909 -0.8383  1.5079
10410SOL    HW232651   7.472   4.656   4.882  0.2751  1.1056 -1.8663
10411SOL     OW32652   6.837   6.089   1.729 -0.6425 -0.0118  0.3734
10411SOL    HW132653   6.801   6.175   1.751  0.6647  1.2257 -1.9297
10411SOL    HW232654   6.930   6.095   1.750 -0.5446 -0.8645  0.2352
10412SOL     OW32655   3.705   0.050   1.069  0.6230  0.4981 -0.2206
10412SOL    HW132656   3.689   0.075   0.978  1.0750 -0.3758 -0.5546
10412SOL    HW232657   3.678  -0.041   1.074  4.2576 -0.7654 -0.5604
10413SOL     OW32658   2.475   7.716   5.346 -0.0993 -0.1120  0.3254
10413SOL    HW132659   2.471   7.654   5.274 -1.8322 -0.6943  0.8698
10413SOL    HW232660   2.400   7.775   5.332  0.2788  0.5420  0.9580
10414SOL     OW32661   2.480   6.954   7.682  0.2851  0.6823  0.3637
10414SOL    HW132662   2.494   6.898   7.758  1.8749  1.1410  0.4468
10414SOL    HW232663   2.503   6.899   7.607 -2.8789 -0.3252 -0.0070
10415SOL     OW32664   4.418   7.470   3.458 -0.3648  0.0037 -0.7066
10415SOL    HW132665   4.360   7.534   3.417 -2.4350 -1.5057 -0.2595
10415SOL    HW232666   4.397   7.474   3.551 -1.0885 -1.8010 -0.7541
10416SOL     OW32667   1.574   4.748   7.176 -1.0051 -0.3111  0.2806
10416SOL    HW132668   1.479   4.752   7.170 -0.8585  1.4447 -2.1841
10416SOL    HW232669   1.598   4.671   7.124 -1.0275  0.1789 -0.4706
10417SOL     OW32670   7.041   5.391   3.313  0.3996 -0.4956  0.2554
10417SOL    HW132671   7.083   5.363   3.394  0.4221 -0.2992  0.3123
10417SOL    HW232672   6.949   5.368   3.325  0.3561 -0.2311  0.4450
10418SOL     OW32673   1.882   1.449   4.617 -0.3299 -0.8072  0.0962
10418SOL    HW132674   1.907   1.395   4.692 -0.6716  1.5905  2.0823
10418SOL    HW232675   1.917   1.536   4.638 -2.6500  0.5667 -1.2641
10419SOL     OW32676   3.380   3.721   7.814  0.1837 -0.8704 -0.8584
10419SOL    HW132677   3.388   3.815   7.828 -2.0833 -0.6139 -0.9526
10419SOL    HW232678   3.453   3.699   7.757 -0.4783  1.2535 -2.6804
10420SOL     OW32679   0.761   1.534   6.483 -0.1222  0.1503  0.1804
10420SOL    HW132680   0.672   1.568   6.487  0.3102  1.2502  1.2384
10420SOL    HW232681   0.763   1.463   6.546 -0.6990 -1.1063 -1.1495
10421SOL     OW32682   4.613   1.604   0.964 -0.1329 -0.0182  1.0451
10421SOL    HW132683   4.554   1.652   1.022 -1.6162 -0.0676 -0.3452
10421SOL    HW232684   4.618   1.516   1.003  1.9715  0.9117  3.1587
10422SOL     OW32685   2.788   4.107   7.685  0.3129 -0.4548 -0.0047
10422SOL    HW132686   2.830   4.167   7.623  0.8801 -0.8126  0.0316
10422SOL    HW232687   2.818   4.021   7.659 -0.1251 -0.6883  0.2447
10423SOL     OW32688   4.787   7.064   2.018 -0.3533 -0.0578 -0.3385
10423SOL    HW132689   4.829   7.149   2.016 -2.3465  0.9873 -0.6739
10423SOL    HW232690   4.746   7.055   1.932 -0.4082 -1.2354 -0.2076
10424SOL     OW32691   5.154   1.311   7.496  0.3643  0.3855 -0.1212
10424SOL    HW132692   5.237   1.317   7.448  0.5158  3.3655  0.3715
10424SOL    HW232693   5.098   1.257   7.439  1.6876  0.7661 -1.8828
10425SOL     OW32694   3.486   3.731   6.881 -0.0919 -0.2284  0.7847
10425SOL    HW132695   3.469   3.810   6.831  0.4327 -0.7515 -0.2575
10425SOL    HW232696   3.562   3.753   6.935  2.4780 -1.0616 -2.1820
10426SOL     OW32697   7.965   7.237   1.875  0.0639  0.0733 -0.0735
10426SOL    HW132698   7.925   7.266   1.793 -0.6445 -2.5462 -0.7303
10426SOL    HW232699   8.043   7.292   1.885  0.0861  0.5422 -2.4292
10427SOL     OW32700   2.814   4.424   1.421  0.3178 -0.1295  0.0452
10427SOL    HW132701   2.840   4.481   1.349 -0.0077  2.3186  1.7280
10427SOL    HW232702   2.761   4.356   1.380  0.6621  0.7979 -2.0804
10428SOL     OW32703   3.199   7.707   0.199 -0.2406 -0.0829  0.1403
10428SOL    HW132704   3.110   7.742   0.206 -0.6918 -1.4402  1.8555
10428SOL    HW232705   3.236   7.719   0.286  1.5939  1.1874 -0.7553
10429SOL     OW32706   0.629   4.928   6.666 -0.0463 -0.4094 -0.0542
10429SOL    HW132707   0.561   4.992   6.645  0.4484 -0.0253 -0.5301
10429SOL    HW232708   0.692   4.935   6.593  0.2525 -1.1044  0.1234
10430SOL     OW32709   4.460   0.418   3.182  0.1919 -0.2364  0.0604
10430SOL    HW132710   4.478   0.339   3.131  0.3845  0.2687 -0.6690
10430SOL    HW232711   4.499   0.401   3.267 -0.4588 -1.2440  0.1594
10431SOL     OW32712   4.023   6.852   7.664  0.2132  0.2215  0.1002
10431SOL    HW132713   4.007   6.944   7.646  1.4041  0.5186  0.4822
10431SOL    HW232714   3.936   6.815   7.678 -0.3526  1.0840 -0.9556
10432SOL     OW32715   4.135   0.382   6.297  0.1280  0.2816  0.5540
10432SOL    HW132716   4.160   0.465   6.255  0.1637  0.0664  0.1470
10432SOL    HW232717   4.198   0.372   6.369  1.6440 -0.5560 -0.8191
10433SOL     OW32718   6.099   5.306   4.996  0.4583  0.6090 -0.5846
10433SOL    HW132719   6.062   5.315   5.083 -1.1259 -0.0456 -1.1484
10433SOL    HW232720   6.132   5.393   4.974  0.3796  0.9100  0.4495
10434SOL     OW32721   2.517   0.174   5.197  0.8553  0.1358  0.2442
10434SOL    HW132722   2.439   0.158   5.144  0.5265  1.0026  0.4602
10434SOL    HW232723   2.578   0.218   5.139  0.4026  1.3077  0.6332
10435SOL     OW32724   1.424   6.490   7.282  0.1702  0.3455 -0.2678
10435SOL    HW132725   1.505   6.487   7.231  1.5604  2.0222  1.6469
10435SOL    HW232726   1.433   6.419   7.346  0.2004  0.6104  0.0265
10436SOL     OW32727   3.011   3.335   6.331  0.1475  0.0804  0.1547
10436SOL    HW132728   3.093   3.286   6.325 -0.3999 -0.8392  0.0637
10436SOL    HW232729   2.998   3.347   6.425 -0.6100 -1.5191  0.2832
10437SOL     OW32730   6.749   2.837   2.624  0.1033  0.3611 -0.5146
10437SOL    HW132731   6.764   2.913   2.680  0.5767  1.7359 -2.3924
10437SOL    HW232732   6.835   2.814   2.590 -0.1777 -0.3707 -0.7450
10438SOL     OW32733   1.201   3.453   7.840  0.0437 -0.3279 -0.9071
10438SOL    HW132734   1.261   3.524   7.816  0.1828 -0.3596 -0.6632
10438SOL    HW232735   1.234   3.422   7.924  0.0555 -0.7635 -1.0693
10439SOL     OW32736   2.108   1.371   6.061  0.0538  0.3360 -0.1836
10439SOL    HW132737   2.079   1.319   6.136  0.8005  0.7711  0.4221
10439SOL    HW232738   2.094   1.462   6.088 -1.7323  0.4706 -1.4346
10440SOL     OW32739   5.323   2.937   0.003 -0.3510 -0.1144  0.0299
10440SOL    HW132740   5.320   2.948   0.098  1.5536 -1.4394  0.2981
10440SOL    HW232741   5.355   3.020  -0.030 -1.0528  0.3688  0.5271
10441SOL     OW32742   1.320   6.620   6.858  0.1043 -0.3223 -0.0568
10441SOL    HW132743   1.386   6.560   6.893  0.1003  0.2262  0.8982
10441SOL    HW232744   1.242   6.604   6.910 -0.4059 -0.6524 -0.8948
10442SOL     OW32745   2.776   4.672   1.929  0.5798 -0.6064 -0.5529
10442SOL    HW132746   2.793   4.763   1.953 -2.6265 -0.4137  1.7304
10442SOL    HW232747   2.702   4.676   1.869 -0.6813 -1.6794  0.8411
10443SOL     OW32748   6.249   2.126   6.090  0.3852  0.2617 -0.2694
10443SOL    HW132749   6.208   2.203   6.131  0.1319 -0.4734  0.9198
10443SOL    HW232750   6.208   2.121   6.003 -2.2571 -0.5218  0.8956
10444SOL     OW32751   7.183   4.320   5.248  0.2897  0.7205 -0.2077
10444SOL    HW132752   7.171   4.368   5.330  2.0492 -0.9679  1.1243
10444SOL    HW232753   7.101   4.272   5.237  0.8258 -0.8526  1.8992
10445SOL     OW32754   4.252   1.473   5.744  0.2135 -0.2190 -0.0614
10445SOL    HW132755   4.325   1.429   5.788 -0.8459 -1.4888  0.5149
10445SOL    HW232756   4.175   1.420   5.767 -0.8604  0.9457 -0.8263
10446SOL     OW32757   0.448   3.951   1.702  0.2385  0.0969 -0.1064
10446SOL    HW132758   0.442   3.856   1.693 -0.2084 -0.0241  1.2377
10446SOL    HW232759   0.537   3.973   1.673  0.9255 -0.9449  1.1569
10447SOL     OW32760   3.146   1.009   6.384  0.2134  0.1615 -0.2847
10447SOL    HW132761   3.205   0.938   6.357 -1.1034 -0.6789 -1.0835
10447SOL    HW232762   3.107   1.040   6.302 -0.4192  0.7220  0.2218
10448SOL     OW32763   6.764   2.141   6.294  0.4196 -0.1421 -0.1089
10448SOL    HW132764   6.755   2.050   6.325 -0.1737 -0.2878 -0.6791
10448SOL    HW232765   6.679   2.181   6.313  0.8932  0.4782  0.7111
10449SOL     OW32766   0.470   7.488   2.432  0.0237 -0.2970  0.4030
10449SOL    HW132767   0.556   7.483   2.390 -1.3115 -1.7443 -2.4664
10449SOL    HW232768   0.488   7.477   2.525  2.9513 -0.1715 -0.0498
10450SOL     OW32769   1.793   5.814   1.198  0.5703  0.0626 -0.5924
10450SOL    HW132770   1.811   5.845   1.109  1.7339  1.2844  0.0379
10450SOL    HW232771   1.870   5.763   1.222  1.0639  1.2047  0.3373
10451SOL     OW32772   4.290   0.914   4.169  0.3676 -0.5000  0.2364
10451SOL    HW132773   4.362   0.860   4.203  0.2942 -0.3368  0.6600
10451SOL    HW232774   4.214   0.889   4.222 -0.1212 -1.3446 -0.8203
10452SOL     OW32775   6.871   3.479   7.946  0.2882  0.5378  0.4966
10452SOL    HW132776   6.790   3.513   7.909  0.7921  1.2225  0.0125
10452SOL    HW232777   6.890   3.401   7.893 -1.9718 -1.8914  2.8947
10453SOL     OW32778   2.362   6.015   1.646 -0.8529 -0.4158  0.4276
10453SOL    HW132779   2.319   6.075   1.585  0.5700  0.0117 -0.1941
10453SOL    HW232780   2.402   5.948   1.591  1.7071  0.7707  0.6616
10454SOL     OW32781   6.837   5.952   8.013  0.5802 -0.3618  0.2136
10454SOL    HW132782   6.837   5.964   8.108 -2.0910 -1.4006  0.4359
10454SOL    HW232783   6.868   5.863   7.999  1.1618 -0.1433  0.0800
10455SOL     OW32784   7.768   1.095   0.815 -0.1900  0.6824  0.8087
10455SOL    HW132785   7.789   1.006   0.787 -1.1776  0.7867 -0.3323
10455SOL    HW232786   7.674   1.103   0.799 -0.2697  1.6641  1.6791
10456SOL     OW32787   3.883   2.842   2.092 -0.2421  0.1817  0.1930
10456SOL    HW132788   3.915   2.908   2.030  0.1664  0.5946  0.8347
10456SOL    HW232789   3.963   2.802   2.128 -0.4250 -2.2977 -1.8568
10457SOL     OW32790   6.671   4.011   4.186  0.0358 -0.7325  0.2471
10457SOL    HW132791   6.696   4.005   4.278  1.5627  0.7201 -0.0168
10457SOL    HW232792   6.726   3.947   4.141  2.0801  1.0991 -0.0685
10458SOL     OW32793   7.744   0.318   1.725 -0.1284  0.5692  0.3287
10458SOL    HW132794   7.814   0.300   1.788  0.5262 -1.8143 -0.9846
10458SOL    HW232795   7.678   0.250   1.741  1.4114 -2.1117 -3.3774
10459SOL     OW32796   5.077   2.749   0.434  0.1280  0.5139  0.2188
10459SOL    HW132797   5.020   2.747   0.358 -0.4719 -0.0045  0.6782
10459SOL    HW232798   5.088   2.658   0.459 -0.8912  0.7572  1.6495
10460SOL     OW32799   5.490   2.167   0.732 -0.0838  0.0636  0.2509
10460SOL    HW132800   5.525   2.206   0.652  0.1505 -0.0187  0.3144
10460SOL    HW232801   5.560   2.178   0.796  0.6108 -1.8879 -0.1304
10461SOL     OW32802   4.199   6.753   0.932 -0.3894  0.4025  0.0979
10461SOL    HW132803   4.160   6.692   0.995  0.4206  0.2305  0.4481
10461SOL    HW232804   4.155   6.733   0.849  0.2245 -1.0184  0.0853
10462SOL     OW32805   0.022   7.805   5.704  0.0893  0.5992  0.4829
10462SOL    HW132806   0.068   7.804   5.620  0.4418  1.1501  0.6642
10462SOL    HW232807  -0.070   7.791   5.681  0.0014  2.0310 -0.1263
10463SOL     OW32808   4.551   2.774   1.873  0.1607 -0.4872  0.2875
10463SOL    HW132809   4.597   2.695   1.901 -0.0359 -0.4850  0.6261
10463SOL    HW232810   4.578   2.787   1.782 -0.0996 -1.1642  0.1036
10464SOL     OW32811   4.682   7.589   5.714  0.1040  0.4684  0.0755
10464SOL    HW132812   4.696   7.521   5.649 -0.2650 -0.2849  0.7745
10464SOL    HW232813   4.670   7.669   5.663 -2.7529 -0.5044 -0.9355
10465SOL     OW32814   7.593   8.048   4.210 -0.0938  0.0673  0.3290
10465SOL    HW132815   7.645   7.994   4.151  0.8182  0.6866  0.5353
10465SOL    HW232816   7.624   8.025   4.297 -3.4569 -3.0355  0.9539
10466SOL     OW32817   6.832   1.030   5.004 -0.8793  0.5031 -0.2456
10466SOL    HW132818   6.846   1.000   5.093  1.3729 -2.6285 -1.5069
10466SOL    HW232819   6.899   1.097   4.990 -1.6412  1.4542  0.5533
10467SOL     OW32820   4.607   1.101   7.555 -0.3428 -0.5015  0.7127
10467SOL    HW132821   4.548   1.167   7.519  0.1589  0.0414  0.8666
10467SOL    HW232822   4.613   1.121   7.648  0.6158 -0.1206  0.5800
10468SOL     OW32823   5.620   5.075   1.036  0.5034  0.5359  0.1188
10468SOL    HW132824   5.664   5.089   0.952  2.1353 -0.8369  0.6904
10468SOL    HW232825   5.527   5.075   1.014  0.8994 -1.4484 -2.0132
10469SOL     OW32826   2.271   1.389   2.117 -0.0545 -0.5469 -0.3512
10469SOL    HW132827   2.365   1.400   2.130  0.1280 -0.0216 -1.8341
10469SOL    HW232828   2.262   1.304   2.074  0.0868  0.5582 -2.7706
10470SOL     OW32829   6.341   4.915   3.592  0.0370 -0.6037 -0.2008
10470SOL    HW132830   6.348   4.902   3.687 -0.9861  0.2889  0.0221
10470SOL    HW232831   6.432   4.924   3.563  0.3509 -0.3848  0.7883
10471SOL     OW32832   7.582   2.299   5.882 -0.3175 -0.3799  0.4611
10471SOL    HW132833   7.537   2.234   5.828 -0.0635 -0.5415  0.4466
10471SOL    HW232834   7.632   2.248   5.946 -0.3190 -0.1961  0.6119
10472SOL     OW32835   6.326   6.031   5.298  0.6198 -0.2262 -0.0154
10472SOL    HW132836   6.352   5.991   5.380 -0.1410  0.5554  0.6339
10472SOL    HW232837   6.231   6.044   5.307  0.4876 -0.3342 -1.1066
10473SOL     OW32838   7.147   6.361   4.311  0.2049  0.0085 -0.0070
10473SOL    HW132839   7.064   6.346   4.267  1.2503 -1.1613 -1.6641
10473SOL    HW232840   7.200   6.283   4.292  1.6233  0.6212  1.1646
10474SOL     OW32841   6.433   0.001   7.228 -0.2712  0.0195  0.8376
10474SOL    HW132842   6.346   0.037   7.242 -0.7784 -1.0768  0.5895
10474SOL    HW232843   6.459   0.033   7.141 -1.9409 -2.4552 -0.7167
10475SOL     OW32844   8.025   7.517   5.620  0.2836  0.2812 -0.3770
10475SOL    HW132845   7.960   7.587   5.633  0.8606  0.5018  1.5382
10475SOL    HW232846   8.095   7.560   5.571  1.1981  1.4731  1.8320
10476SOL     OW32847   0.457   0.167   0.604 -0.0980  0.3255 -0.9710
10476SOL    HW132848   0.524   0.235   0.596  1.1699 -0.8404 -0.7084
10476SOL    HW232849   0.436   0.144   0.514 -0.0487  0.6086 -1.0570
10477SOL     OW32850   1.308   5.228   0.181  0.0929  0.2186  0.1643
10477SOL    HW132851   1.371   5.202   0.248  0.4065 -0.4515 -0.3690
10477SOL    HW232852   1.363   5.259   0.108 -0.0335 -2.1897 -1.0792
10478SOL     OW32853   1.565   3.195   3.018  0.2722  0.3567  0.0855
10478SOL    HW132854   1.474   3.207   2.991  0.5670  0.4071 -0.9392
10478SOL    HW232855   1.595   3.119   2.968  1.6380  2.0902 -1.8983
10479SOL     OW32856   1.925   4.689   7.726  0.1351  0.1691 -0.3327
10479SOL    HW132857   1.964   4.761   7.775 -0.9373  1.4735 -1.3406
10479SOL    HW232858   1.865   4.647   7.788 -3.0182  3.2501 -1.0182
10480SOL     OW32859   6.106   7.647   7.851  0.6427 -0.9692  0.1128
10480SOL    HW132860   6.044   7.579   7.878  0.2685  0.1053  2.1638
10480SOL    HW232861   6.139   7.683   7.934 -0.1544  2.2108 -0.8472
10481SOL     OW32862   2.108   7.527   6.554  0.4281 -0.4672 -0.4028
10481SOL    HW132863   2.083   7.503   6.643  1.3018 -3.6349 -0.8792
10481SOL    HW232864   2.037   7.584   6.523  0.0573  0.6301  2.2227
10482SOL     OW32865   4.646   0.218   5.638 -0.5506 -0.2787 -0.1889
10482SOL    HW132866   4.571   0.266   5.675 -1.7867 -1.9568 -0.4001
10482SOL    HW232867   4.631   0.219   5.544  0.4645  0.5462 -0.3631
10483SOL     OW32868   3.316   6.154   7.385  0.0530 -0.0629 -0.4944
10483SOL    HW132869   3.264   6.106   7.449  0.0489 -1.2728 -1.3514
10483SOL    HW232870   3.371   6.087   7.344  1.1062  0.9195 -0.7412
10484SOL     OW32871   3.497   0.367   6.358 -0.3051 -0.0901  0.1626
10484SOL    HW132872   3.469   0.343   6.270  2.0964  0.6030 -0.8688
10484SOL    HW232873   3.563   0.435   6.345  0.4143 -0.2491  2.4735
10485SOL     OW32874   6.784   1.081   3.240 -0.1771 -0.3682  0.1566
10485SOL    HW132875   6.776   1.060   3.333  0.0550 -0.7404  0.0927
10485SOL    HW232876   6.707   1.040   3.200 -0.4483  0.0616  0.2268
10486SOL     OW32877   2.364   0.833   6.202 -0.7796 -0.1082  0.2296
10486SOL    HW132878   2.327   0.877   6.126 -0.5538  0.4490  0.4407
10486SOL    HW232879   2.324   0.876   6.277  0.3841  0.6073  0.4670
10487SOL     OW32880   1.582   0.752   4.372  0.3330  0.7562 -0.5900
10487SOL    HW132881   1.541   0.737   4.457  0.6600  0.7782 -0.4260
10487SOL    HW232882   1.525   0.817   4.330 -0.4959 -0.1293 -0.8821
10488SOL     OW32883   0.671   6.989   1.970  0.1125 -0.1758  0.6483
10488SOL    HW132884   0.673   7.076   1.931 -0.2927 -1.1552 -1.7444
10488SOL    HW232885   0.763   6.965   1.980  0.2248  0.4345  1.1654
10489SOL     OW32886   6.104   3.316   1.411 -0.4092  0.2701 -0.3671
10489SOL    HW132887   6.082   3.277   1.326  0.4721 -0.5045 -0.2527
10489SOL    HW232888   6.142   3.401   1.389 -1.3454  0.6155 -0.6765
10490SOL     OW32889   6.371   4.555   3.341  0.0607 -0.1224  0.2039
10490SOL    HW132890   6.393   4.517   3.256 -1.8379 -0.4028 -0.1937
10490SOL    HW232891   6.453   4.595   3.370  1.4057 -2.0739 -0.6346
10491SOL     OW32892   7.343   5.666   3.307 -0.6222  0.8583  0.0165
10491SOL    HW132893   7.409   5.597   3.300  0.0113  1.4448  0.1693
10491SOL    HW232894   7.267   5.631   3.259  0.1309  0.5871 -1.0128
10492SOL     OW32895   7.914   4.971   6.851 -0.0066  0.2186 -0.2323
10492SOL    HW132896   7.864   4.969   6.769 -0.5428  2.8464 -0.0504
10492SOL    HW232897   7.882   5.048   6.897  0.9143 -0.6930  2.0866
10493SOL     OW32898   7.389   5.057   2.983  0.1000  0.3691  0.1277
10493SOL    HW132899   7.388   5.123   3.052 -3.9521  0.5586  0.1065
10493SOL    HW232900   7.395   4.974   3.030  0.2258  0.5960  0.5204
10494SOL     OW32901   7.235   1.628   3.883 -0.0023 -0.4264 -0.5481
10494SOL    HW132902   7.164   1.687   3.858 -1.1466 -1.6026 -0.2075
10494SOL    HW232903   7.193   1.542   3.892  0.7268 -0.5701  3.0821
10495SOL     OW32904   3.285   6.975   6.764 -0.0223 -0.1003  0.1034
10495SOL    HW132905   3.291   6.880   6.752  0.5523 -0.0970  0.3229
10495SOL    HW232906   3.201   6.988   6.809 -0.7487 -0.3755 -1.1128
10496SOL     OW32907   4.303   7.052   7.712 -0.7089 -0.0756 -0.6832
10496SOL    HW132908   4.352   6.974   7.739 -1.5885 -1.1174 -1.9773
10496SOL    HW232909   4.282   7.096   7.795  0.4156 -0.8188  0.0329
10497SOL     OW32910   8.046   4.490   0.776 -0.7566 -0.1841 -0.4123
10497SOL    HW132911   8.057   4.424   0.706  2.3279  0.9437 -1.1515
10497SOL    HW232912   8.034   4.572   0.729  2.3787  0.7638  0.1824
10498SOL     OW32913   5.626   2.473   7.850  0.2066 -0.4258 -0.0383
10498SOL    HW132914   5.559   2.410   7.878  1.7117 -2.2513 -0.3674
10498SOL    HW232915   5.576   2.543   7.807 -1.4257 -2.8407 -2.3980
10499SOL     OW32916   4.519   2.374   2.681  0.0696 -0.2553 -0.7624
10499SOL    HW132917   4.560   2.287   2.673  0.7541  0.1173 -1.4509
10499SOL    HW232918   4.506   2.385   2.775  0.9303 -0.6783 -0.5796
10500SOL     OW32919   5.920   1.024   0.716 -0.2864  0.2042  0.0675
10500SOL    HW132920   5.880   1.046   0.799 -1.1171  0.0953 -0.2906
10500SOL    HW232921   5.962   1.104   0.686 -0.5584  0.4233  0.2762
10501SOL     OW32922   0.050   3.654   1.043 -0.7363  0.1246  0.2458
10501SOL    HW132923  -0.024   3.603   1.077  0.0386 -1.7820 -0.8114
10501SOL    HW232924   0.031   3.665   0.950  0.5147 -0.8523 -0.1570
10502SOL     OW32925   6.614   1.226   2.005 -0.3374 -0.9111  0.6440
10502SOL    HW132926   6.524   1.195   1.991 -1.2185  0.8049  2.0941
10502SOL    HW232927   6.609   1.279   2.084  2.3604 -2.2227  1.8075
10503SOL     OW32928   7.876   7.090   0.954  0.1234 -0.3023  0.1219
10503SOL    HW132929   7.881   7.125   0.865  2.6128 -1.0669 -0.0892
10503SOL    HW232930   7.853   7.166   1.008  2.5132  1.0913 -0.6931
10504SOL     OW32931   4.228   5.394   0.732 -0.3750  0.5985 -0.2180
10504SOL    HW132932   4.208   5.395   0.639 -0.5908  0.4967 -0.1724
10504SOL    HW232933   4.322   5.377   0.736 -0.9084 -3.1208 -0.3382
10505SOL     OW32934   0.428   5.784   7.495  0.6419 -0.8935  0.4046
10505SOL    HW132935   0.357   5.737   7.452  1.7680 -1.2185 -1.1821
10505SOL    HW232936   0.487   5.716   7.528  1.4411 -0.6240 -0.4378
10506SOL     OW32937   3.539   1.652   0.630 -0.6340 -0.3281  0.2951
10506SOL    HW132938   3.510   1.743   0.619  0.8009 -0.0662 -2.0064
10506SOL    HW232939   3.633   1.654   0.611 -0.7780 -2.4467 -1.0185
10507SOL     OW32940   7.147   7.243   4.024  0.3217  0.4084  0.3061
10507SOL    HW132941   7.121   7.321   4.073 -0.5625 -0.2323  0.8815
10507SOL    HW232942   7.117   7.261   3.934 -0.9280  0.2556  0.6759
10508SOL     OW32943   4.480   7.450   4.585 -0.0874  0.1293  0.0883
10508SOL    HW132944   4.468   7.375   4.527  0.1976  0.3451 -0.2571
10508SOL    HW232945   4.573   7.447   4.608  0.1041  0.8288 -0.5627
10509SOL     OW32946   4.154   1.769   7.590 -0.2667 -0.1961 -0.4963
10509SOL    HW132947   4.058   1.762   7.594 -0.2652 -1.0590 -1.3749
10509SOL    HW232948   4.178   1.718   7.512  0.8403  0.7019 -0.7724
10510SOL     OW32949   6.961   4.531   3.483 -0.1084  0.4356 -0.1495
10510SOL    HW132950   6.967   4.583   3.404 -1.8561  0.0989 -0.5505
10510SOL    HW232951   7.026   4.569   3.542  0.9300  0.9576 -1.5738
10511SOL     OW32952   4.708   5.684   4.032 -0.2608  0.0057 -0.2451
10511SOL    HW132953   4.703   5.652   3.942 -2.1243  0.7511 -0.4365
10511SOL    HW232954   4.716   5.779   4.024 -0.1054  0.0549  0.3738
10512SOL     OW32955   2.549   1.814   4.632 -0.4767  0.1185 -0.1636
10512SOL    HW132956   2.643   1.812   4.613 -0.8166  0.5781 -2.1333
10512SOL    HW232957   2.534   1.736   4.685  1.2977  1.0268  1.8680
10513SOL     OW32958   1.969   6.094   1.794 -0.1447 -0.5621  0.2209
10513SOL    HW132959   1.945   6.162   1.857 -1.1067 -0.9938  0.3341
10513SOL    HW232960   2.010   6.141   1.722 -0.9641  0.1677  0.2180
10514SOL     OW32961   6.499   0.860   5.513 -0.2122 -0.2278  0.0378
10514SOL    HW132962   6.572   0.875   5.573 -0.8887  2.0950  0.3719
10514SOL    HW232963   6.538   0.864   5.426  0.4497 -1.7083  0.2244
10515SOL     OW32964   4.808   0.780   2.435  0.0009  0.0784 -0.4540
10515SOL    HW132965   4.729   0.810   2.479  0.1221 -2.3361  1.5803
10515SOL    HW232966   4.789   0.691   2.408  1.4245  0.0839 -1.6255
10516SOL     OW32967   0.208   0.096   1.601 -0.2717 -0.0915  0.3640
10516SOL    HW132968   0.196   0.116   1.509  1.5217 -1.5774 -0.2752
10516SOL    HW232969   0.189   0.002   1.608 -0.8151  0.0852  1.6091
10517SOL     OW32970   2.848   6.282   6.051  0.2888 -0.0313 -0.1312
10517SOL    HW132971   2.817   6.232   5.975 -1.1189  0.4205  0.1241
10517SOL    HW232972   2.859   6.216   6.120 -0.4257 -0.1620 -0.1375
10518SOL     OW32973   2.552   1.369   6.539  0.2846 -0.0278  0.1985
10518SOL    HW132974   2.466   1.344   6.505 -0.8386  1.5936  1.6765
10518SOL    HW232975   2.591   1.423   6.470 -0.6251  0.6423  0.1913
10519SOL     OW32976   5.868   1.979   4.783 -0.2681 -0.7907 -0.0679
10519SOL    HW132977   5.797   2.009   4.726  0.4695 -1.8073 -1.6088
10519SOL    HW232978   5.932   2.050   4.781  0.7008 -1.6040 -2.3104
10520SOL     OW32979   5.388   5.074   0.723 -0.1204  0.1309 -0.1884
10520SOL    HW132980   5.477   5.094   0.751 -0.6161  0.5243  1.1809
10520SOL    HW232981   5.347   5.035   0.800 -1.3260  0.5565 -0.5896
10521SOL     OW32982   4.161   3.431   7.524  0.3230  0.1987  0.1138
10521SOL    HW132983   4.106   3.354   7.542 -0.1796  0.8134  1.2606
10521SOL    HW232984   4.202   3.452   7.608  0.3148  1.2983 -0.1473
10522SOL     OW32985   1.634   2.328   2.022 -0.1634  0.4759 -0.4189
10522SOL    HW132986   1.698   2.281   1.968  0.4478 -1.4623  1.8090
10522SOL    HW232987   1.680   2.407   2.050  0.2495  0.4756 -1.0782
10523SOL     OW32988   7.252   0.279   4.057  0.6569 -0.5900  0.2087
10523SOL    HW132989   7.264   0.323   4.142 -0.6325  0.4119 -0.0950
10523SOL    HW232990   7.225   0.349   3.997  1.0219 -1.3810 -0.9059
10524SOL     OW32991   3.631   4.056   0.928  0.3242  0.6904  0.0621
10524SOL    HW132992   3.664   4.122   0.867 -1.1662  1.4194 -0.0055
10524SOL    HW232993   3.561   4.012   0.881 -0.4922  0.9027  1.0380
10525SOL     OW32994   5.698   1.004   3.633 -0.1155  0.8076 -0.7100
10525SOL    HW132995   5.667   0.937   3.695 -2.0565  1.7271 -0.5988
10525SOL    HW232996   5.662   1.086   3.668 -0.6812  1.4435 -2.6594
10526SOL     OW32997   4.950   1.880   2.587 -0.1689  0.1584 -0.0898
10526SOL    HW132998   5.015   1.912   2.524  0.0766  1.1998  0.6659
10526SOL    HW232999   4.974   1.789   2.602 -0.2918 -0.1326 -1.5704
10527SOL     OW33000   2.460   4.826   4.398  0.1426 -0.2218 -0.3514
10527SOL    HW133001   2.405   4.899   4.427 -0.1446 -0.5634 -0.0200
10527SOL    HW233002   2.531   4.867   4.349 -0.1654  0.2589 -0.3991
10528SOL     OW33003   4.690   3.665   5.646  0.0639  0.5189  0.5477
10528SOL    HW133004   4.699   3.634   5.556 -0.3184  1.8496  0.0171
10528SOL    HW233005   4.770   3.635   5.690 -1.5713 -3.9047  1.0290
10529SOL     OW33006   2.028   5.100   1.242 -0.1802 -0.0725 -0.3523
10529SOL    HW133007   2.123   5.102   1.254 -0.2533 -2.4404  1.3617
10529SOL    HW233008   1.992   5.112   1.330 -1.3913 -1.0321 -0.6855
10530SOL     OW33009   4.056   6.369   1.490  0.2422 -0.2227  0.4735
10530SOL    HW133010   4.007   6.446   1.517  2.2620  1.2540  0.1461
10530SOL    HW233011   4.117   6.353   1.562  1.1816 -0.2884 -0.3265
10531SOL     OW33012   6.318   4.776   3.128 -0.2352 -0.2316  0.1037
10531SOL    HW133013   6.254   4.726   3.077  0.5333 -1.2461  0.1042
10531SOL    HW233014   6.274   4.792   3.211 -1.6315  1.7344 -0.9508
10532SOL     OW33015   5.500   4.189   5.374 -0.6843 -0.0906  0.1437
10532SOL    HW133016   5.577   4.156   5.420 -1.4172 -1.9007  0.1656
10532SOL    HW233017   5.426   4.156   5.424 -1.4854  0.2987 -0.7484
10533SOL     OW33018   2.384   8.003   7.848  0.7511  0.6936  0.0605
10533SOL    HW133019   2.419   7.923   7.809  0.0790  0.1182  0.6096
10533SOL    HW233020   2.412   7.999   7.939 -0.9959  0.0401  0.6047
10534SOL     OW33021   7.027   0.968   1.756 -0.1909  0.0527 -0.0708
10534SOL    HW133022   7.019   1.063   1.761  1.6615  0.2710 -0.5209
10534SOL    HW233023   7.066   0.951   1.670 -0.9909 -1.1801 -0.2310
10535SOL     OW33024   1.090   1.574   1.857 -0.1067  0.0968  0.2325
10535SOL    HW133025   1.128   1.649   1.811 -0.6868  0.0195 -0.3948
10535SOL    HW233026   1.008   1.557   1.810  0.2646 -1.2563  0.0417
10536SOL     OW33027   5.255   6.015   0.145 -0.2568 -0.5721 -0.1407
10536SOL    HW133028   5.331   6.056   0.103 -0.5702  1.1093  0.8431
10536SOL    HW233029   5.274   6.021   0.239 -0.7779 -1.8133  0.0517
10537SOL     OW33030   6.980   2.365   4.453  1.0291  0.1713  0.1093
10537SOL    HW133031   7.045   2.331   4.391  0.0976 -2.4255  0.4112
10537SOL    HW233032   6.959   2.452   4.420  2.4357 -0.1204 -1.7497
10538SOL     OW33033   5.408   1.742   7.284 -0.2765 -0.4628 -0.0422
10538SOL    HW133034   5.399   1.796   7.362 -5.2207  0.8601 -1.1203
10538SOL    HW233035   5.412   1.804   7.212 -2.7701 -1.3659 -1.1024
10539SOL     OW33036   4.951   7.287   4.222 -0.1772  0.4269 -0.2188
10539SOL    HW133037   4.899   7.367   4.223  1.4762  1.6142 -1.8820
10539SOL    HW233038   4.930   7.245   4.139  0.8364  0.4603 -0.5043
10540SOL     OW33039   7.430   6.305   2.486  0.5021  0.4944 -0.1790
10540SOL    HW133040   7.357   6.327   2.428  0.6529 -0.0540 -0.5756
10540SOL    HW233041   7.417   6.213   2.507  2.2936 -0.2218 -2.0125
10541SOL     OW33042   4.545   2.086   2.622 -0.3541 -0.1392 -0.1435
10541SOL    HW133043   4.594   2.014   2.661  0.5180  0.3448 -0.3212
10541SOL    HW233044   4.455   2.054   2.617  0.1909 -1.5936 -1.1416
10542SOL     OW33045   6.588   5.188   6.785  0.3989  0.4341  0.1840
10542SOL    HW133046   6.669   5.226   6.819  1.0054 -0.6603  0.0275
10542SOL    HW233047   6.595   5.095   6.807  0.3718 -0.1532 -2.0997
10543SOL     OW33048   3.561   2.382   1.982  0.5042 -0.5649  0.3420
10543SOL    HW133049   3.544   2.433   2.060  0.1346 -0.4544  0.1921
10543SOL    HW233050   3.640   2.332   2.002  0.0583 -1.0051  1.0140
10544SOL     OW33051   3.131   7.739   1.012  0.1481  0.7482 -0.4773
10544SOL    HW133052   3.110   7.708   1.100  1.9705 -0.1639 -0.3127
10544SOL    HW233053   3.176   7.665   0.971 -1.1051  0.9794 -2.3776
10545SOL     OW33054   2.822   6.618   1.175  0.4243  0.4283 -0.1770
10545SOL    HW133055   2.873   6.538   1.165 -0.6594 -0.3657  0.5027
10545SOL    HW233056   2.731   6.591   1.162 -0.1131  1.2263  1.5836
10546SOL     OW33057   3.022   6.394   4.191 -0.1270 -0.1111  0.3620
10546SOL    HW133058   2.938   6.414   4.151 -1.3695 -1.6300  2.0692
10546SOL    HW233059   3.036   6.464   4.254 -0.3604 -0.1385  0.4431
10547SOL     OW33060   1.592   2.930   3.522  0.0937  0.1196  0.3237
10547SOL    HW133061   1.586   2.855   3.581 -0.1079  0.1836  0.3852
10547SOL    HW233062   1.622   2.893   3.439 -1.0597 -0.2000  0.0354
10548SOL     OW33063   5.212   3.897   4.003  0.5378  0.0288 -0.7552
10548SOL    HW133064   5.261   3.827   3.961 -1.0842 -0.7674 -1.4117
10548SOL    HW233065   5.239   3.976   3.956  0.2071 -0.5786 -2.0110
10549SOL     OW33066   0.562   7.658   0.726 -0.1229 -0.3887 -0.0570
10549SOL    HW133067   0.543   7.743   0.686 -4.1732 -0.9352  0.3160
10549SOL    HW233068   0.565   7.597   0.653 -0.7284 -0.4005 -0.0778
10550SOL     OW33069   6.333   7.497   3.451 -0.3616 -0.2701 -0.0859
10550SOL    HW133070   6.393   7.422   3.457 -1.5092 -1.2225 -0.0650
10550SOL    HW233071   6.303   7.496   3.360 -0.2220  0.3118 -0.1414
10551SOL     OW33072   5.745   4.258   7.459 -0.3168 -0.0253 -0.6886
10551SOL    HW133073   5.724   4.341   7.503 -0.5604 -0.1049 -0.6537
10551SOL    HW233074   5.774   4.284   7.372  0.3790  0.1488 -0.4073
10552SOL     OW33075   1.276   0.598   6.315 -0.4240 -0.3807  0.1868
10552SOL    HW133076   1.349   0.636   6.267  0.5701 -1.3559  0.8987
10552SOL    HW233077   1.285   0.631   6.404 -0.0731 -1.5445  0.5953
10553SOL     OW33078   2.689   6.655   6.308 -0.6065 -0.9935  0.2601
10553SOL    HW133079   2.618   6.671   6.245 -1.5330 -0.0468  1.4879
10553SOL    HW233080   2.645   6.647   6.392  0.7935  0.2375  1.1516
10554SOL     OW33081   7.865   0.271   0.043  0.0851  0.1638 -0.1651
10554SOL    HW133082   7.946   0.317   0.020  0.3758 -0.5423 -0.6110
10554SOL    HW233083   7.879   0.181   0.011 -0.6925 -0.0834  0.1651
10555SOL     OW33084   7.418   1.799   3.999 -0.0881  0.0621  0.0565
10555SOL    HW133085   7.436   1.866   3.933 -0.0020 -1.7002 -1.8071
10555SOL    HW233086   7.323   1.785   3.994 -0.1879  0.4271  0.8370
10556SOL     OW33087   1.021   5.107   4.909  0.1592  0.5836  0.0129
10556SOL    HW133088   1.046   5.195   4.882  0.3486  0.3895 -0.4633
10556SOL    HW233089   1.075   5.049   4.855  1.8128  0.1702  2.0245
10557SOL     OW33090   5.305   0.726   7.610 -0.3911 -0.1417 -0.3118
10557SOL    HW133091   5.258   0.790   7.558 -0.1841  0.6939  0.4998
10557SOL    HW233092   5.397   0.750   7.601 -0.3451 -0.0583  0.3447
10558SOL     OW33093   7.147   6.523   0.141  0.2872 -0.9918  0.2202
10558SOL    HW133094   7.179   6.494   0.226  1.8954 -1.0804 -0.3759
10558SOL    HW233095   7.225   6.556   0.096 -0.3710 -1.6873 -1.5190
10559SOL     OW33096   6.445   5.082   1.941 -0.1515  0.4489  0.8602
10559SOL    HW133097   6.506   5.129   1.998  0.3680  0.5856  0.2112
10559SOL    HW233098   6.363   5.130   1.948  0.6399  2.1098 -0.5789
10560SOL     OW33099   1.920   1.440   2.077 -0.3011  0.0337  0.5631
10560SOL    HW133100   1.922   1.347   2.056  2.4879  0.0612  0.3279
10560SOL    HW233101   1.926   1.484   1.992 -2.3832  0.4960  0.6112
10561SOL     OW33102   6.901   0.308   2.846  0.1355  0.2279  0.0179
10561SOL    HW133103   6.931   0.262   2.924 -2.9029 -1.0990  0.5366
10561SOL    HW233104   6.981   0.341   2.805  1.9538 -0.5091  2.7491
10562SOL     OW33105   4.217   3.083   3.440  0.0621  0.2260  0.0216
10562SOL    HW133106   4.181   3.154   3.386  0.8855 -0.4749 -1.4765
10562SOL    HW233107   4.139   3.044   3.481 -0.7625 -0.2052 -1.8573
10563SOL     OW33108   5.155   6.570   1.893 -0.0153  0.0556  0.0891
10563SOL    HW133109   5.061   6.553   1.905 -0.1573 -0.5373 -1.6156
10563SOL    HW233110   5.195   6.540   1.975 -1.1839 -0.8920  0.3472
10564SOL     OW33111   5.177   5.111   5.901  0.7084 -0.1562  0.1157
10564SOL    HW133112   5.164   5.051   5.974  0.0210  0.4787  0.5172
10564SOL    HW233113   5.271   5.128   5.900  1.4311 -3.3942 -1.7147
10565SOL     OW33114   6.797   7.778   2.618 -0.2441  0.2564 -0.2632
10565SOL    HW133115   6.748   7.697   2.606  0.9861 -0.5299 -0.2242
10565SOL    HW233116   6.784   7.827   2.537 -0.0799 -0.5098 -0.7618
10566SOL     OW33117   1.166   2.245   0.614  0.0438 -0.6798 -0.4127
10566SOL    HW133118   1.238   2.193   0.580  0.5308  0.9422 -2.0295
10566SOL    HW233119   1.136   2.297   0.539 -2.5058 -0.9400  0.3232
10567SOL     OW33120   7.410   2.359   7.587 -0.0753 -0.6474 -0.4239
10567SOL    HW133121   7.474   2.428   7.608 -0.2402 -0.9913  1.3113
10567SOL    HW233122   7.447   2.316   7.509  0.5019  0.7747 -0.9801
10568SOL     OW33123   7.112   3.460   5.321  0.3140  0.0334  0.0701
10568SOL    HW133124   7.056   3.456   5.243  0.5582  0.6252 -0.1461
10568SOL    HW233125   7.066   3.407   5.386  1.1210 -2.2016 -1.0816
10569SOL     OW33126   6.210   5.414   6.583  0.4876  0.7304 -0.4300
10569SOL    HW133127   6.246   5.349   6.643 -1.3623 -0.2542 -0.3013
10569SOL    HW233128   6.221   5.375   6.496  0.5473  0.8274 -0.4657
10570SOL     OW33129   7.153   0.284   6.580 -0.4218  0.1125 -0.4918
10570SOL    HW133130   7.156   0.219   6.650  0.8607 -0.4477 -1.0368
10570SOL    HW233131   7.085   0.254   6.521 -1.4736  0.5580  0.4708
10571SOL     OW33132   3.169   0.050   0.238 -0.2801  0.1864 -0.0640
10571SOL    HW133133   3.265   0.052   0.238 -0.2031 -1.9146 -0.1270
10571SOL    HW233134   3.146  -0.012   0.170 -1.7273  0.9598 -0.3189
10572SOL     OW33135   6.070   4.848   3.726  0.5807 -0.0654  0.0645
10572SOL    HW133136   6.145   4.846   3.667  2.0190  2.0478  1.6906
10572SOL    HW233137   6.095   4.792   3.799 -0.6779 -1.6692 -0.6799
10573SOL     OW33138   7.439   0.617   6.717 -0.1882  0.0230 -0.3233
10573SOL    HW133139   7.524   0.660   6.725  0.8174 -1.9311  0.3088
10573SOL    HW233140   7.459   0.533   6.673 -1.4215 -1.3662  1.6182
10574SOL     OW33141   0.525   7.315   1.033 -0.4626 -1.0839 -0.5142
10574SOL    HW133142   0.598   7.259   1.058  0.1255 -0.2584 -0.3080
10574SOL    HW233143   0.459   7.256   0.999  0.4388 -1.8220 -1.0208
10575SOL     OW33144   4.975   0.439   0.233 -0.4262 -0.5462  0.0449
10575SOL    HW133145   5.039   0.489   0.285 -2.0101 -0.2531  1.8031
10575SOL    HW233146   4.963   0.491   0.153  0.8085 -0.1411  0.0987
10576SOL     OW33147   7.715   0.880   1.195 -0.6136  0.1555 -0.1317
10576SOL    HW133148   7.745   0.859   1.283 -0.3920  2.3544  0.3718
10576SOL    HW233149   7.770   0.953   1.168 -0.4814 -0.6404 -2.2436
10577SOL     OW33150   6.050   4.368   1.991 -0.1104 -0.0522 -0.0081
10577SOL    HW133151   6.143   4.350   2.002 -0.0029 -0.0896 -0.9161
10577SOL    HW233152   6.022   4.404   2.076  0.0645 -2.8073  1.3356
10578SOL     OW33153   4.358   7.655   1.326 -0.3917  0.3481 -0.2123
10578SOL    HW133154   4.341   7.574   1.279 -0.0844 -0.1282  0.4669
10578SOL    HW233155   4.420   7.703   1.271 -0.3167 -0.0344 -0.4602
10579SOL     OW33156   1.347   7.028   3.389  0.6108 -0.0878 -0.1355
10579SOL    HW133157   1.313   6.977   3.316  0.8257 -1.9486  1.0084
10579SOL    HW233158   1.312   7.116   3.375  0.1762 -0.5364 -2.1414
10580SOL     OW33159   2.539   2.122   0.059  0.2364 -0.0053  0.1754
10580SOL    HW133160   2.467   2.087   0.008  0.6944 -0.1241 -0.3971
10580SOL    HW233161   2.580   2.045   0.099 -0.3125  0.1118  0.9949
10581SOL     OW33162   1.054   7.299   2.040 -0.8364 -0.3861  0.3647
10581SOL    HW133163   1.103   7.374   2.072  0.2944 -0.3521 -1.3625
10581SOL    HW233164   1.076   7.228   2.101  1.9997 -0.5735 -0.7580
10582SOL     OW33165   7.539   3.945   6.891  0.1512  0.0508 -0.2123
10582SOL    HW133166   7.500   3.904   6.814 -2.2859 -1.1825  1.5611
10582SOL    HW233167   7.515   4.038   6.884  1.0796  0.2155 -1.5423
10583SOL     OW33168   0.713   2.897   6.987  0.0356  0.2337 -0.4434
10583SOL    HW133169   0.699   2.904   6.893  0.2188  2.6005 -0.3610
10583SOL    HW233170   0.678   2.979   7.022 -1.7388 -1.3643  1.7960
10584SOL     OW33171   3.774   5.192   2.223  0.1798  0.2054  0.0980
10584SOL    HW133172   3.831   5.242   2.164  0.9649 -2.6561 -1.8006
10584SOL    HW233173   3.832   5.125   2.260 -1.4405 -1.4366 -0.1916
10585SOL     OW33174   6.038   5.450   0.703 -0.2425  0.1213 -0.3447
10585SOL    HW133175   6.104   5.446   0.772  0.3494  0.2354 -0.8969
10585SOL    HW233176   5.957   5.421   0.746  0.3745 -1.0540  0.0723
10586SOL     OW33177   5.490   6.436   6.409  0.3703 -0.0218  0.1450
10586SOL    HW133178   5.473   6.511   6.353 -0.3637 -2.0945 -2.6345
10586SOL    HW233179   5.502   6.363   6.349 -0.0228 -2.3739  2.6952
10587SOL     OW33180   5.504   2.402   1.574 -0.1280  0.3666 -0.1692
10587SOL    HW133181   5.471   2.425   1.661 -1.0006 -0.7525 -0.1853
10587SOL    HW233182   5.592   2.368   1.591 -1.1154 -1.9840  0.5972
10588SOL     OW33183   5.448   4.264   7.301 -0.3361 -0.0079 -0.0239
10588SOL    HW133184   5.521   4.205   7.320  0.6708  1.2396  0.1287
10588SOL    HW233185   5.490   4.348   7.282 -1.8009  1.1858  1.7515
10589SOL     OW33186   4.848   5.435   1.711 -0.1387  0.1648 -0.2803
10589SOL    HW133187   4.904   5.359   1.725 -1.9477 -1.0302  0.8766
10589SOL    HW233188   4.846   5.480   1.795 -0.6146  0.4004 -0.4095
10590SOL     OW33189   4.724   7.762   4.796 -0.5920 -0.0804  0.3624
10590SOL    HW133190   4.700   7.822   4.866 -0.8168  1.7422 -1.2122
10590SOL    HW233191   4.818   7.775   4.784 -0.8748  0.9967 -0.8737
10591SOL     OW33192   5.182   5.578   7.271 -0.0011 -0.0270 -0.4054
10591SOL    HW133193   5.248   5.508   7.274 -0.9132 -0.8778  1.1773
10591SOL    HW233194   5.107   5.538   7.227 -0.1098  0.3524 -0.5670
10592SOL     OW33195   0.081   7.943   2.659 -0.8535  0.1372  0.0664
10592SOL    HW133196   0.094   7.964   2.566  0.1784 -3.3873 -0.7363
10592SOL    HW233197  -0.010   7.916   2.665 -1.4478  2.0807  0.5565
10593SOL     OW33198   2.280   2.751   5.312  0.2219 -0.0800  0.4149
10593SOL    HW133199   2.328   2.831   5.333 -0.2868 -0.0187  1.4333
10593SOL    HW233200   2.347   2.687   5.292  0.7779 -0.1123  2.2178
10594SOL     OW33201   7.839   5.057   4.827  0.0686 -0.1321  0.1542
10594SOL    HW133202   7.789   4.998   4.771  1.0875 -1.2039  0.3127
10594SOL    HW233203   7.783   5.071   4.903 -0.7796  0.2774 -0.5286
10595SOL     OW33204   6.190   0.189   7.850 -0.2065 -0.1303  0.1466
10595SOL    HW133205   6.248   0.119   7.821 -2.1729 -1.1545 -1.6090
10595SOL    HW233206   6.167   0.165   7.940  0.1061 -1.0888 -0.0172
10596SOL     OW33207   1.819   1.303   6.459  0.0183 -0.3376 -0.2919
10596SOL    HW133208   1.774   1.381   6.427  0.0359 -0.4046 -0.4808
10596SOL    HW233209   1.864   1.333   6.538  0.0575 -0.1455 -0.3850
10597SOL     OW33210   5.457   1.352   7.875  0.1693  0.1257  0.2991
10597SOL    HW133211   5.491   1.434   7.839 -0.3474  0.1805 -0.0836
10597SOL    HW233212   5.365   1.350   7.848  0.1914 -0.6110  0.2466
10598SOL     OW33213   6.797   4.838   7.820 -0.5307  0.1567  0.0145
10598SOL    HW133214   6.798   4.929   7.851 -1.6112  0.1880  0.0173
10598SOL    HW233215   6.800   4.785   7.900  0.8186  0.1698 -0.0155
10599SOL     OW33216   4.077   3.739   4.342  0.4403 -0.2158 -0.4969
10599SOL    HW133217   4.065   3.644   4.352  1.1564 -0.2870 -0.2487
10599SOL    HW233218   4.013   3.764   4.276 -0.4317 -0.7123  0.1361
10600SOL     OW33219   3.390   1.418   7.065 -0.1176 -0.3285  0.3743
10600SOL    HW133220   3.333   1.341   7.059 -0.4001 -0.2232  1.4641
10600SOL    HW233221   3.343   1.487   7.018  0.0198 -0.7442 -0.3890
10601SOL     OW33222   1.465   5.400   6.214  0.1634  0.6293  0.0435
10601SOL    HW133223   1.549   5.444   6.199 -0.0004  0.9100 -0.0601
10601SOL    HW233224   1.417   5.413   6.132 -0.3208  1.2312  0.4179
10602SOL     OW33225   2.816   6.668   2.093 -0.4090  0.7754  0.2346
10602SOL    HW133226   2.902   6.626   2.087 -1.2149 -0.8421 -0.4086
10602SOL    HW233227   2.787   6.676   2.002 -1.8536 -0.7154  0.5184
10603SOL     OW33228   3.969   7.363   2.141  0.8016 -0.2463 -0.4903
10603SOL    HW133229   3.962   7.389   2.233  2.7415 -0.9539 -0.1003
10603SOL    HW233230   3.995   7.444   2.096  0.5192 -0.0571 -0.3231
10604SOL     OW33231   1.704   1.625   5.664 -0.3541  0.2585 -0.0898
10604SOL    HW133232   1.679   1.712   5.631  0.0411  0.8906  1.2274
10604SOL    HW233233   1.781   1.602   5.611  1.6651  2.2477  1.7364
10605SOL     OW33234   2.641   3.476   3.717 -0.2269 -0.4801  0.1120
10605SOL    HW133235   2.678   3.391   3.738  0.0692 -0.1959  0.7653
10605SOL    HW233236   2.715   3.536   3.719 -0.4209 -0.2124 -0.4082
10606SOL     OW33237   1.852   7.755   5.213  0.3639 -0.4254  0.1171
10606SOL    HW133238   1.940   7.772   5.249  1.2161 -3.7125 -0.0549
10606SOL    HW233239   1.820   7.681   5.264 -2.7326  1.1327  0.6638
10607SOL     OW33240   2.244   0.133   6.750  0.0840  0.6060 -0.1772
10607SOL    HW133241   2.256   0.059   6.692  0.7431  0.8430 -0.3491
10607SOL    HW233242   2.331   0.151   6.785 -0.2723  0.5419  0.7968
10608SOL     OW33243   0.272   0.645   0.907 -0.3220 -0.2608  0.3360
10608SOL    HW133244   0.245   0.576   0.846 -0.7875  1.3534 -1.3764
10608SOL    HW233245   0.367   0.635   0.912 -0.0764  0.3824 -1.7942
10609SOL     OW33246   7.218   4.579   3.303  0.1641 -0.5619 -0.4656
10609SOL    HW133247   7.245   4.640   3.372  0.7956  1.0756 -2.0558
10609SOL    HW233248   7.136   4.616   3.269  0.4251 -0.7004 -1.2837
10610SOL     OW33249   2.159   7.245   7.236  0.0031  0.6044  0.1522
10610SOL    HW133250   2.151   7.276   7.326 -0.4298  0.3760  0.1920
10610SOL    HW233251   2.115   7.312   7.184 -0.9800  0.0451  0.2429
10611SOL     OW33252   0.258   4.187   1.260 -0.4378  0.0339 -0.3799
10611SOL    HW133253   0.173   4.188   1.304  1.1358 -0.2978  3.0346
10611SOL    HW233254   0.277   4.279   1.245 -0.7184  0.2302  0.3833
10612SOL     OW33255   1.241   7.564   6.479  0.2947  0.1578 -0.5074
10612SOL    HW133256   1.156   7.609   6.476 -0.3690 -1.0326 -0.4951
10612SOL    HW233257   1.257   7.536   6.389 -0.9345 -2.3884 -0.0313
10613SOL     OW33258   1.380   3.562   4.357  0.0772  0.2996 -0.1249
10613SOL    HW133259   1.357   3.516   4.438 -0.2684  0.1033 -0.3317
10613SOL    HW233260   1.473   3.581   4.366  0.3047 -0.7174 -0.1685
10614SOL     OW33261   5.890   2.802   1.948  0.7016  0.0593  0.3434
10614SOL    HW133262   5.802   2.771   1.965  0.9101 -0.1845  1.0017
10614SOL    HW233263   5.891   2.824   1.855 -0.6942  2.1101  0.7488
10615SOL     OW33264   0.651   5.010   3.762  0.3696 -0.0130 -0.5964
10615SOL    HW133265   0.592   4.939   3.786  1.0234 -0.3530  0.0351
10615SOL    HW233266   0.732   4.993   3.811  0.4598  1.2843 -0.2499
10616SOL     OW33267   5.819   6.662   7.696  0.0331  0.0366  0.1818
10616SOL    HW133268   5.731   6.625   7.687  0.3894 -0.4102 -2.1391
10616SOL    HW233269   5.870   6.595   7.741 -0.4465 -0.3521  0.1489
10617SOL     OW33270   2.045   2.456   2.115  0.4859  0.5835  0.1963
10617SOL    HW133271   2.051   2.533   2.058  2.4858 -0.2361 -0.7932
10617SOL    HW233272   2.097   2.389   2.071 -0.4755 -1.0755  1.4830
10618SOL     OW33273   1.342   7.643   4.373  0.1750 -0.0911  1.0283
10618SOL    HW133274   1.424   7.610   4.410  1.7486 -0.9158 -2.6557
10618SOL    HW233275   1.365   7.728   4.336 -1.1826  0.5613  1.6335
10619SOL     OW33276   3.351   6.460   1.496  0.3002 -0.0360  0.5597
10619SOL    HW133277   3.299   6.392   1.538 -0.5980 -0.1722 -0.6893
10619SOL    HW233278   3.287   6.510   1.444  1.7110 -2.1948 -3.6817
10620SOL     OW33279   5.421   6.754   3.126  0.0029 -0.0276  0.4008
10620SOL    HW133280   5.495   6.770   3.185 -0.6089  1.7203  0.7475
10620SOL    HW233281   5.360   6.825   3.144 -0.9782 -0.4290 -1.1432
10621SOL     OW33282   4.089   0.876   4.336  0.5330  0.0305  0.1267
10621SOL    HW133283   4.090   0.971   4.323  2.7252  0.2025  1.1186
10621SOL    HW233284   4.014   0.861   4.393  1.3888  1.4890  1.7498
10622SOL     OW33285   3.506   5.992   7.747 -0.1069  0.4698  0.3980
10622SOL    HW133286   3.470   5.906   7.726  1.2791  0.6296 -3.5473
10622SOL    HW233287   3.430   6.049   7.754 -0.9417 -0.6337  0.5575
10623SOL     OW33288   6.387   2.054   6.380  0.1146  0.3421 -0.1485
10623SOL    HW133289   6.342   2.025   6.301  1.9409 -0.6127 -0.8881
10623SOL    HW233290   6.361   1.989   6.447  0.9836 -0.6919 -0.7794
10624SOL     OW33291   5.661   4.861   7.147 -0.3463 -0.1633 -0.5068
10624SOL    HW133292   5.694   4.948   7.171 -1.1265 -0.2443  0.9515
10624SOL    HW233293   5.598   4.878   7.077  0.7162  0.2623 -1.3815
10625SOL     OW33294   4.053   1.257   0.898  0.1639  0.3061 -1.3469
10625SOL    HW133295   4.028   1.336   0.849 -0.6934  0.6227 -0.4186
10625SOL    HW233296   4.034   1.185   0.838  1.9017  0.8240 -2.5950
10626SOL     OW33297   5.949   0.992   3.561 -0.2177  0.4508  0.0828
10626SOL    HW133298   5.854   0.991   3.569 -0.5676  1.1079 -2.8730
10626SOL    HW233299   5.976   1.074   3.602 -1.1719  1.2540 -0.8598
10627SOL     OW33300   1.386   5.129   6.383 -0.1619 -0.8586  0.4914
10627SOL    HW133301   1.406   5.218   6.413  0.7220 -1.0310  0.4442
10627SOL    HW233302   1.462   5.104   6.331 -0.8262 -1.2948 -0.2940
10628SOL     OW33303   4.746   2.686   3.365  0.2832 -0.3197  0.3995
10628SOL    HW133304   4.734   2.599   3.327  1.3421 -0.4129  0.2505
10628SOL    HW233305   4.709   2.746   3.301 -0.8923 -0.6832  0.7245
10629SOL     OW33306   4.188   6.514   6.903  0.3918 -0.2862  0.3998
10629SOL    HW133307   4.198   6.578   6.973  0.7967 -1.6469  1.6585
10629SOL    HW233308   4.094   6.496   6.899  0.2973  0.2705  0.1517
10630SOL     OW33309   0.876   0.569   0.839  0.2755 -0.2167  0.9526
10630SOL    HW133310   0.872   0.651   0.789  1.9194 -1.3797 -1.2501
10630SOL    HW233311   0.787   0.534   0.835  0.4868 -0.6364 -1.9619
10631SOL     OW33312   4.377   0.263   6.813  0.0547  0.4907  0.7192
10631SOL    HW133313   4.375   0.328   6.743  1.6030 -1.8940 -1.7314
10631SOL    HW233314   4.334   0.186   6.777  2.0973 -1.2797  1.7938
10632SOL     OW33315   0.051   5.632   2.136  0.1710 -0.9957  0.1827
10632SOL    HW133316   0.006   5.705   2.094 -0.0114 -1.5338 -0.5671
10632SOL    HW233317  -0.010   5.604   2.205  0.0907 -0.6603  0.2501
10633SOL     OW33318   1.612   4.246   7.242 -0.6058 -0.5010 -0.3601
10633SOL    HW133319   1.649   4.172   7.194 -0.7783 -0.7601 -0.0964
10633SOL    HW233320   1.526   4.261   7.202 -0.6147 -0.5098 -0.3443
10634SOL     OW33321   2.335   4.898   0.628 -0.4448 -0.3666 -0.0744
10634SOL    HW133322   2.284   4.968   0.589 -0.5923 -0.5696 -0.2527
10634SOL    HW233323   2.362   4.844   0.554  0.3062 -0.0812 -0.0148
10635SOL     OW33324   6.738   0.649   5.102 -0.0080 -0.3872  0.4385
10635SOL    HW133325   6.694   0.637   5.186  0.5299  0.1963  0.8109
10635SOL    HW233326   6.669   0.677   5.042 -0.9454 -3.1847  0.0181
10636SOL     OW33327   3.134   0.168   4.157  0.2375 -0.6593 -0.0089
10636SOL    HW133328   3.226   0.177   4.132 -0.1697  1.1137 -0.9903
10636SOL    HW233329   3.116   0.243   4.213 -0.2972 -1.7074  1.2762
10637SOL     OW33330   2.479   6.553   1.482 -0.2795  0.2516 -0.1581
10637SOL    HW133331   2.563   6.509   1.493 -0.5941 -0.8736 -1.9380
10637SOL    HW233332   2.445   6.562   1.572  0.6890 -1.3760  0.4189
10638SOL     OW33333   4.075   7.194   5.284  0.2281 -0.4900  0.1659
10638SOL    HW133334   4.132   7.270   5.290 -1.0264  0.6972 -1.7030
10638SOL    HW233335   4.038   7.184   5.372  2.6249 -0.8121  1.2057
10639SOL     OW33336   5.216   4.861   1.549 -0.0793  0.8905 -0.1234
10639SOL    HW133337   5.207   4.822   1.637 -0.0105  0.3252 -0.3586
10639SOL    HW233338   5.148   4.928   1.546  0.0154  1.0213  0.4198
10640SOL     OW33339   7.882   2.574   1.861  0.0979  0.6812 -0.2337
10640SOL    HW133340   7.840   2.656   1.836  0.9204  1.0879 -0.3131
10640SOL    HW233341   7.865   2.514   1.788  0.4516  1.1265 -0.6864
10641SOL     OW33342   7.096   3.489   3.084 -0.2472  0.4620  0.2519
10641SOL    HW133343   7.131   3.537   3.160  0.1989  1.2308 -0.4171
10641SOL    HW233344   7.174   3.452   3.042 -0.5603 -0.5644  0.5561
10642SOL     OW33345   0.831   7.342   7.793 -0.2691 -0.2573 -0.0739
10642SOL    HW133346   0.814   7.276   7.726  0.2142 -0.7567  0.2780
10642SOL    HW233347   0.925   7.333   7.812 -0.3565  0.0109  0.5190
10643SOL     OW33348   2.304   6.330   2.649  0.2157 -0.2205 -0.6873
10643SOL    HW133349   2.311   6.277   2.728  0.2984  2.9377  1.6358
10643SOL    HW233350   2.392   6.330   2.612  0.1088 -1.9698 -1.0277
10644SOL     OW33351   7.335   2.028   7.432 -0.4215 -0.5857  0.6621
10644SOL    HW133352   7.404   1.974   7.470 -0.0756 -0.3789  0.3432
10644SOL    HW233353   7.382   2.100   7.389 -0.8645 -0.0989  0.9778
10645SOL     OW33354   1.044   1.158   6.076 -0.4037 -0.6761 -0.5311
10645SOL    HW133355   1.114   1.215   6.042 -1.8249  0.1020 -2.3027
10645SOL    HW233356   1.059   1.157   6.170  1.0604  0.7640 -0.6877
10646SOL     OW33357   2.381   2.214   7.476  0.1502 -0.5673 -0.2279
10646SOL    HW133358   2.390   2.121   7.453  0.9176  0.0398 -2.6251
10646SOL    HW233359   2.464   2.238   7.515  0.0726 -0.8051  0.0849
10647SOL     OW33360   7.694   5.636   1.287  0.0044  0.6600  0.4808
10647SOL    HW133361   7.714   5.727   1.306  0.2913  0.3726  1.6091
10647SOL    HW233362   7.776   5.589   1.301 -0.6156 -0.0561  1.9004
10648SOL     OW33363   3.247   0.869   5.310 -0.0559  0.0887 -0.1877
10648SOL    HW133364   3.243   0.834   5.221 -1.3148 -1.2240  0.3425
10648SOL    HW233365   3.322   0.825   5.349  0.0522  0.1045 -0.3758
10649SOL     OW33366   0.791   2.217   4.595 -0.2992  0.2484  0.3088
10649SOL    HW133367   0.764   2.233   4.686 -1.6409  0.1015 -0.0425
10649SOL    HW233368   0.726   2.264   4.542 -0.7689 -1.3947 -0.6153
10650SOL     OW33369   4.307   0.261   3.614 -0.6798 -0.2044 -0.6794
10650SOL    HW133370   4.267   0.257   3.527 -0.9680 -1.2634 -0.5035
10650SOL    HW233371   4.236   0.291   3.671 -0.5531  0.2633 -0.7583
10651SOL     OW33372   0.609   1.328   4.443 -0.3442  0.0851  0.3771
10651SOL    HW133373   0.682   1.279   4.405 -1.1354 -1.0824  0.2783
10651SOL    HW233374   0.561   1.262   4.494  0.5771  1.5124  3.3651
10652SOL     OW33375   0.950   7.671   6.911 -0.4928 -0.1670  0.7123
10652SOL    HW133376   1.018   7.612   6.880 -0.8218 -0.3804  0.3967
10652SOL    HW233377   0.880   7.613   6.941 -0.4416  0.0464  1.2589
10653SOL     OW33378   4.075   2.038   5.075 -0.2001  0.2598 -0.0728
10653SOL    HW133379   4.141   2.006   5.137 -1.8555 -2.9781  0.2304
10653SOL    HW233380   4.111   2.016   4.989 -0.4986 -0.7955  0.0577
10654SOL     OW33381   6.614   3.716   3.389  0.0082  0.3265 -0.5138
10654SOL    HW133382   6.595   3.650   3.322 -0.9127 -0.6103  0.6136
10654SOL    HW233383   6.581   3.677   3.471 -2.2415  2.9043 -0.0542
10655SOL     OW33384   2.106   1.561   1.109  0.3465 -0.1882 -0.1739
10655SOL    HW133385   2.074   1.493   1.169 -0.9371  0.4531 -0.0932
10655SOL    HW233386   2.085   1.528   1.022  1.6737 -0.8502 -0.2620
10656SOL     OW33387   3.960   2.586   6.240 -0.0252  0.1337  0.1280
10656SOL    HW133388   3.976   2.590   6.334  0.3544  0.5662  0.0500
10656SOL    HW233389   3.907   2.508   6.228 -0.0946  0.0861  0.7040
10657SOL     OW33390   0.001   6.467   3.404  0.1113  0.4514 -0.4223
10657SOL    HW133391   0.047   6.549   3.391 -0.3288  0.9805  1.0783
10657SOL    HW233392  -0.090   6.493   3.422  0.2397 -0.2151  1.4532
10658SOL     OW33393   4.897   7.980   6.853  0.4875 -0.1954  0.6591
10658SOL    HW133394   4.949   7.900   6.868 -0.2892 -0.8253  0.1011
10658SOL    HW233395   4.933   8.017   6.772  0.3093 -0.4345  0.4687
10659SOL     OW33396   5.356   2.349   5.090  0.2660 -0.4672  0.2909
10659SOL    HW133397   5.445   2.341   5.056  0.5557 -0.9127  1.1316
10659SOL    HW233398   5.329   2.258   5.107  0.2595 -0.2512  1.5496
10660SOL     OW33399   3.179   6.520   4.031 -0.2986 -0.1268  0.0293
10660SOL    HW133400   3.108   6.482   4.083 -2.3474 -0.8666 -3.0053
10660SOL    HW233401   3.142   6.601   3.996  1.3161  0.7852  0.3451
10661SOL     OW33402   3.986   0.449   7.238 -0.1821 -0.2969  0.5037
10661SOL    HW133403   4.070   0.483   7.271 -0.2899  0.7502 -0.2338
10661SOL    HW233404   3.936   0.429   7.317  1.1603 -2.0189  0.9644
10662SOL     OW33405   3.607   0.236   5.500  0.5941  0.4076 -0.2915
10662SOL    HW133406   3.642   0.296   5.566  1.6336 -0.0390 -0.4062
10662SOL    HW233407   3.614   0.285   5.417  2.3757 -0.1831 -0.5368
10663SOL     OW33408   4.539   4.800   0.852 -0.1399 -0.6427 -0.2569
10663SOL    HW133409   4.580   4.775   0.770 -1.1432 -0.8131 -0.7217
10663SOL    HW233410   4.582   4.881   0.878  0.5256 -0.8584 -0.6893
10664SOL     OW33411   3.150   6.690   4.825 -0.0602  0.2489  0.3022
10664SOL    HW133412   3.183   6.633   4.755 -1.2240 -0.6686  0.4669
10664SOL    HW233413   3.098   6.756   4.780  0.4833  0.6143  0.1933
10665SOL     OW33414   4.477   2.762   1.597  0.0132 -0.2054 -0.0271
10665SOL    HW133415   4.449   2.854   1.593  0.2202 -0.0737  1.3349
10665SOL    HW233416   4.568   2.763   1.569  0.0570  0.0276  0.1220
10666SOL     OW33417   6.667   7.345   2.635  0.2796  0.1440  0.0853
10666SOL    HW133418   6.665   7.281   2.706 -0.7305  0.0330 -0.0326
10666SOL    HW233419   6.609   7.415   2.664  0.9436  0.7549 -0.0328
10667SOL     OW33420   0.229   6.795   2.849  0.0416 -0.4589 -0.2428
10667SOL    HW133421   0.188   6.772   2.766  1.1384  1.9669 -1.5691
10667SOL    HW233422   0.290   6.865   2.827  2.0688 -1.2730  2.2605
10668SOL     OW33423   3.895   2.877   0.301  0.6510  0.1873  0.5050
10668SOL    HW133424   3.942   2.960   0.300  1.2558 -0.0616 -2.6317
10668SOL    HW233425   3.823   2.890   0.363  2.3091  2.0642  2.1376
10669SOL     OW33426   4.561   0.418   4.345 -1.1703 -0.4603  0.1899
10669SOL    HW133427   4.632   0.440   4.406 -2.2148  2.2177  0.5845
10669SOL    HW233428   4.580   0.328   4.317  2.4371  0.1670  0.1426
10670SOL     OW33429   6.535   4.889   2.395 -0.1529 -0.7395 -0.0778
10670SOL    HW133430   6.502   4.800   2.387 -0.3118 -0.7183  0.3433
10670SOL    HW233431   6.467   4.943   2.353 -0.8061 -0.6673  1.0449
10671SOL     OW33432   6.028   0.979   5.649  0.0763  0.2841 -0.2088
10671SOL    HW133433   5.952   0.921   5.653  0.2908 -0.0063 -0.3117
10671SOL    HW233434   6.057   0.986   5.740  2.1364 -2.5667 -0.5472
10672SOL     OW33435   5.557   7.423   2.060  0.0488  0.1972 -0.0346
10672SOL    HW133436   5.481   7.368   2.040 -0.0208  0.5842 -0.8837
10672SOL    HW233437   5.519   7.508   2.085  0.1578 -0.0948  1.1474
10673SOL     OW33438   5.964   0.333   4.396 -0.0672  0.5658 -0.1185
10673SOL    HW133439   6.042   0.335   4.341 -0.6068 -0.5970 -0.9762
10673SOL    HW233440   5.894   0.367   4.340 -0.0306  2.4970  0.9470
10674SOL     OW33441   4.202   7.006   1.625 -0.0069 -0.6085  0.3990
10674SOL    HW133442   4.218   7.093   1.661 -1.3272  0.3015 -1.0457
10674SOL    HW233443   4.197   6.949   1.701  1.0766  0.5354  1.3766
10675SOL     OW33444   2.121   0.880   5.482 -0.3154 -0.4185 -0.0405
10675SOL    HW133445   2.153   0.932   5.556 -0.3409 -0.6936  0.1678
10675SOL    HW233446   2.057   0.936   5.439 -0.9669 -0.5849  0.6803
10676SOL     OW33447   6.404   7.362   6.024 -0.2579 -1.0862 -0.2641
10676SOL    HW133448   6.471   7.430   6.016 -0.7425 -0.4773  0.7606
10676SOL    HW233449   6.432   7.310   6.099 -0.5679 -1.2646 -0.2707
10677SOL     OW33450   0.527   7.969   4.392 -0.5014  0.0026 -0.2001
10677SOL    HW133451   0.604   7.985   4.446  1.0906 -3.5092 -1.1401
10677SOL    HW233452   0.462   7.934   4.453 -0.4511  0.5954  0.1999
10678SOL     OW33453   4.118   1.065   1.074 -0.2749  0.2021  0.1873
10678SOL    HW133454   4.100   1.097   1.163 -2.0497  1.1127 -0.4483
10678SOL    HW233455   4.094   1.139   1.018 -2.0957 -1.3519 -1.2011
10679SOL     OW33456   0.364   2.976   6.919  0.1569  0.0488 -0.0220
10679SOL    HW133457   0.423   3.047   6.895  1.3134 -0.0140  2.3332
10679SOL    HW233458   0.276   3.011   6.903  0.7320  1.6005  0.0131
10680SOL     OW33459   4.666   2.201   1.103  0.1165 -0.2465 -0.5629
10680SOL    HW133460   4.618   2.120   1.083 -1.8187  0.5759  0.4991
10680SOL    HW233461   4.731   2.175   1.169 -0.6914 -0.8802  0.0003
10681SOL     OW33462   7.630   1.218   4.361 -0.0266  0.4649 -0.5269
10681SOL    HW133463   7.562   1.165   4.318 -0.6797  1.0195 -0.2021
10681SOL    HW233464   7.693   1.237   4.292 -1.0417  1.3239 -1.2608
10682SOL     OW33465   7.061   1.417   5.485  0.6942  0.2230 -0.2475
10682SOL    HW133466   7.121   1.485   5.455  1.7252 -0.6064 -0.1146
10682SOL    HW233467   6.974   1.453   5.469  1.2195  1.3829 -0.5933
10683SOL     OW33468   4.370   4.891   7.099  0.0645 -0.4273  0.0206
10683SOL    HW133469   4.356   4.920   7.189 -1.1901  0.4609 -0.4283
10683SOL    HW233470   4.424   4.960   7.060 -3.5946  2.0194 -1.2819
10684SOL     OW33471   3.879   2.938   3.119 -0.5821 -0.1359 -0.6561
10684SOL    HW133472   3.845   3.004   3.179 -0.2462  1.0474 -1.6963
10684SOL    HW233473   3.814   2.934   3.049 -1.2471 -1.9017  0.0226
10685SOL     OW33474   3.940   6.236   1.780 -0.0177 -0.2880 -0.0384
10685SOL    HW133475   3.937   6.149   1.739  0.5182 -1.1623  1.6674
10685SOL    HW233476   4.010   6.229   1.845 -0.3067  1.2782  0.4860
10686SOL     OW33477   5.135   7.634   7.831 -0.4811 -0.2136 -0.9741
10686SOL    HW133478   5.179   7.709   7.792  0.3454 -0.4979 -0.6134
10686SOL    HW233479   5.149   7.643   7.925 -0.7698 -0.5748 -0.8908
10687SOL     OW33480   2.008   5.601   3.051 -0.1006 -0.2152 -0.5578
10687SOL    HW133481   2.087   5.564   3.090 -1.1565 -0.3127  1.6214
10687SOL    HW233482   2.008   5.692   3.080  0.3548  0.4418 -2.4759
10688SOL     OW33483   4.804   4.172   7.505  0.0812  0.2615  0.0302
10688SOL    HW133484   4.728   4.117   7.522  0.2540 -0.4763 -1.3726
10688SOL    HW233485   4.771   4.261   7.511 -0.9794 -0.0440 -0.7809
10689SOL     OW33486   1.680   5.966   1.394  0.5836  0.1220  0.6081
10689SOL    HW133487   1.715   5.924   1.316 -0.0974  1.4823 -0.4685
10689SOL    HW233488   1.756   6.003   1.438  0.9406 -0.4050  0.4392
10690SOL     OW33489   2.509   6.276   3.217  0.2545 -0.0105 -0.0315
10690SOL    HW133490   2.577   6.209   3.218  0.0854 -0.1975 -0.5307
10690SOL    HW233491   2.552   6.355   3.247  1.5554  0.6757 -3.3010
10691SOL     OW33492   0.392   7.596   0.239 -0.1874  0.0159 -0.2083
10691SOL    HW133493   0.308   7.640   0.256  0.2260  1.4641 -1.5586
10691SOL    HW233494   0.384   7.566   0.148  0.2495 -1.0819  0.1096
10692SOL     OW33495   4.511   3.195   4.582 -0.3073 -0.4653  0.2689
10692SOL    HW133496   4.552   3.115   4.549 -0.1037 -0.8236  1.3688
10692SOL    HW233497   4.434   3.206   4.527  0.2246 -0.8314 -0.5779
10693SOL     OW33498   2.056   1.318   1.246 -0.2142  0.0778 -0.0586
10693SOL    HW133499   2.030   1.295   1.335 -0.4347  1.1633  0.1729
10693SOL    HW233500   2.046   1.238   1.196 -0.1000 -0.5411  0.8935
10694SOL     OW33501   3.591   0.561   1.930 -0.3256  0.1325  0.4646
10694SOL    HW133502   3.555   0.497   1.868  0.7344 -1.2356  1.2198
10694SOL    HW233503   3.594   0.642   1.880 -0.5727 -0.6661 -0.9202
10695SOL     OW33504   6.422   1.908   0.268 -0.2653  0.1867 -0.0185
10695SOL    HW133505   6.504   1.902   0.317 -1.0164 -0.1122  1.2609
10695SOL    HW233506   6.407   2.003   0.260  0.7923  0.2649 -1.3262
10696SOL     OW33507   6.059   3.204   3.074  0.0414  0.3709  0.2803
10696SOL    HW133508   6.021   3.117   3.075  0.1585  0.3168  0.1217
10696SOL    HW233509   5.997   3.258   3.024  1.0309 -0.1280 -1.6145
10697SOL     OW33510   1.461   5.657   4.128 -0.6053 -0.2525  0.3230
10697SOL    HW133511   1.490   5.588   4.188 -0.6540 -0.1010  0.5223
10697SOL    HW233512   1.458   5.614   4.042  2.1970  0.2399 -0.1144
10698SOL     OW33513   2.740   6.394   1.740  0.4685 -0.0034  0.5095
10698SOL    HW133514   2.784   6.431   1.663 -0.6982 -0.2599 -0.3187
10698SOL    HW233515   2.790   6.426   1.814  0.2544  2.2290 -0.2182
10699SOL     OW33516   0.177   1.020   7.856 -0.1346  0.1074  0.1349
10699SOL    HW133517   0.237   0.961   7.810  2.7284  2.1587  0.9641
10699SOL    HW233518   0.211   1.024   7.945 -2.1732  0.6147  0.9530
10700SOL     OW33519   1.157   0.813   0.687 -0.2296 -0.4505  0.5427
10700SOL    HW133520   1.066   0.812   0.657 -0.3989  0.4162  0.9848
10700SOL    HW233521   1.176   0.721   0.709 -0.1029 -1.1263 -2.0523
10701SOL     OW33522   1.844   2.470   2.701 -0.1022 -0.0997 -0.0236
10701SOL    HW133523   1.817   2.456   2.792 -0.0893  1.0405  0.1735
10701SOL    HW233524   1.934   2.440   2.698 -0.3284 -0.8203  0.1501
10702SOL     OW33525   1.446   2.842   2.260  0.5710  0.3709  0.4795
10702SOL    HW133526   1.478   2.757   2.287 -1.8730 -1.4354 -1.8229
10702SOL    HW233527   1.494   2.863   2.180 -0.8077 -0.3150 -0.5781
10703SOL     OW33528   1.392   2.598   7.881  0.4232 -0.2429  0.4521
10703SOL    HW133529   1.331   2.526   7.892  0.5399 -0.6162 -1.0631
10703SOL    HW233530   1.459   2.564   7.821 -0.7315  1.7658 -2.1806
10704SOL     OW33531   0.372   7.882   4.596 -0.1098 -0.2310  0.0108
10704SOL    HW133532   0.424   7.803   4.609 -1.5910 -1.2762 -0.2648
10704SOL    HW233533   0.283   7.851   4.581 -0.6055  1.4615 -0.8198
10705SOL     OW33534   5.183   2.484   4.174  0.3909  0.2274 -0.1680
10705SOL    HW133535   5.177   2.440   4.258 -0.0874  0.8294  0.1228
10705SOL    HW233536   5.191   2.413   4.110 -1.0536 -0.3156  0.2239
10706SOL     OW33537   6.304   4.448   0.791  0.3958 -0.2229  0.1026
10706SOL    HW133538   6.332   4.473   0.703  1.9483  0.3904  0.7424
10706SOL    HW233539   6.384   4.419   0.835 -0.0923  0.7528  1.7303
10707SOL     OW33540   4.890   2.877   7.915 -0.0256  0.3174 -0.3186
10707SOL    HW133541   4.807   2.923   7.908 -0.1098  0.3338  0.6931
10707SOL    HW233542   4.937   2.921   7.986  0.3148 -0.4929 -0.0274
10708SOL     OW33543   3.835   2.810   1.065 -0.0518  0.4681 -0.5042
10708SOL    HW133544   3.877   2.894   1.082  0.4432 -0.0810  1.1724
10708SOL    HW233545   3.904   2.745   1.083 -1.0670 -0.3663  0.5179
10709SOL     OW33546   1.487   6.938   6.139  0.0019 -0.0680  0.2921
10709SOL    HW133547   1.470   6.930   6.045 -0.4289  0.5382  0.3174
10709SOL    HW233548   1.406   6.909   6.181 -0.5044  1.4449  0.4346
10710SOL     OW33549   7.942   5.536   2.355  0.4639 -0.0616  0.0163
10710SOL    HW133550   7.933   5.490   2.438  0.7512 -0.2894 -0.0785
10710SOL    HW233551   7.887   5.614   2.365  0.4247 -0.1343  0.3845
10711SOL     OW33552   4.562   2.577   0.945 -0.2144  0.3779  0.7418
10711SOL    HW133553   4.476   2.579   0.904  0.2876  0.9167 -0.3238
10711SOL    HW233554   4.616   2.525   0.885  0.7148  1.8035  0.2894
10712SOL     OW33555   1.828   2.217   2.560 -0.4675 -0.2619  0.3286
10712SOL    HW133556   1.832   2.301   2.607  2.0313 -0.4266  0.5771
10712SOL    HW233557   1.843   2.240   2.469 -1.3528 -0.3123  0.1644
10713SOL     OW33558   1.901   3.814   5.939  0.3402  0.2366 -0.3578
10713SOL    HW133559   1.974   3.854   5.894  0.1238  0.6535 -0.3441
10713SOL    HW233560   1.839   3.886   5.954  0.8908  0.3607  1.5974
10714SOL     OW33561   7.915   5.975   1.025 -0.1619  0.4562  0.2280
10714SOL    HW133562   7.860   5.940   0.955 -0.1620  2.1218 -0.6373
10714SOL    HW233563   7.985   6.022   0.981  1.0331 -0.1939  1.3454
10715SOL     OW33564   7.128   4.927   6.599 -0.0233  0.8549  0.1929
10715SOL    HW133565   7.089   4.875   6.529 -1.6389  2.7847 -0.4459
10715SOL    HW233566   7.065   4.923   6.671  1.0651 -0.1415  1.1368
10716SOL     OW33567   2.182   6.530   6.896 -0.2276  0.2468 -0.4675
10716SOL    HW133568   2.100   6.482   6.878 -0.2559  0.5117 -1.0555
10716SOL    HW233569   2.164   6.577   6.977  0.0509 -1.3140  0.5433
10717SOL     OW33570   4.770   7.770   0.782  0.2036  0.3219 -0.4047
10717SOL    HW133571   4.814   7.687   0.804 -2.0860 -0.6870  0.6855
10717SOL    HW233572   4.819   7.836   0.831  1.2587 -0.5673 -0.2235
10718SOL     OW33573   6.986   3.651   6.389 -0.0494  0.1197 -0.3762
10718SOL    HW133574   6.914   3.589   6.399  0.1743 -0.1224 -0.2617
10718SOL    HW233575   7.022   3.631   6.302  1.5155 -1.5206  0.5645
10719SOL     OW33576   5.212   7.700   0.078  0.4170  0.7227  0.4261
10719SOL    HW133577   5.178   7.785   0.050  0.6889  0.6601 -0.1073
10719SOL    HW233578   5.160   7.678   0.155 -0.0055  1.1352  0.2657
10720SOL     OW33579   3.679   2.247   2.679  0.1450 -0.3520 -0.0650
10720SOL    HW133580   3.652   2.319   2.736 -0.1040 -0.3522 -0.1822
10720SOL    HW233581   3.733   2.191   2.735 -0.1616 -0.3918  0.1885
10721SOL     OW33582   7.101   4.879   2.934 -0.0763  0.6717 -0.3870
10721SOL    HW133583   7.031   4.937   2.966 -0.2943  0.2898 -0.1545
10721SOL    HW233584   7.153   4.859   3.013 -0.0193  0.5306 -0.4600
10722SOL     OW33585   1.735   5.492   5.989 -0.0973  0.8076 -0.2345
10722SOL    HW133586   1.809   5.440   5.958 -0.8754 -1.4118  1.3838
10722SOL    HW233587   1.696   5.528   5.910  0.6577 -0.8758 -1.4358
10723SOL     OW33588   5.960   1.219   1.142 -0.3730  0.4091  0.3835
10723SOL    HW133589   6.017   1.293   1.120 -1.4335  1.1855  0.1565
10723SOL    HW233590   5.903   1.253   1.211  0.9928 -1.0931  2.3533
10724SOL     OW33591   6.482   5.820   5.838 -0.0914 -0.1472  0.1502
10724SOL    HW133592   6.488   5.816   5.743 -0.8058  2.2779 -0.0591
10724SOL    HW233593   6.428   5.745   5.862  1.5184 -1.8112 -1.1367
10725SOL     OW33594   4.684   1.931   5.062  0.4270  0.0040  0.1261
10725SOL    HW133595   4.591   1.910   5.069  0.1506  0.7639 -1.1362
10725SOL    HW233596   4.689   2.002   4.999  1.4885  2.8107  3.0727
10726SOL     OW33597   7.600   0.390   5.801 -0.1355 -0.3541 -0.4031
10726SOL    HW133598   7.597   0.315   5.861 -0.5207 -0.3963 -0.4737
10726SOL    HW233599   7.614   0.466   5.858  1.6875 -0.6048 -0.4335
10727SOL     OW33600   3.855   4.148   3.696  0.0455  0.4419  0.5803
10727SOL    HW133601   3.833   4.208   3.625 -0.1758 -0.5149 -0.1803
10727SOL    HW233602   3.951   4.143   3.696  0.0414  0.3542  0.2609
10728SOL     OW33603   2.463   6.701   6.146  0.0109  0.4382  0.2533
10728SOL    HW133604   2.413   6.623   6.171 -0.1847  0.9227  1.4208
10728SOL    HW233605   2.479   6.690   6.052 -1.1038 -0.3916  0.1377
10729SOL     OW33606   2.652   6.860   1.245  0.3363 -0.7478 -0.5784
10729SOL    HW133607   2.710   6.785   1.229 -0.6146 -1.7268  0.4055
10729SOL    HW233608   2.564   6.823   1.243 -0.0601 -0.3898  3.2129
10730SOL     OW33609   5.952   0.238   3.776  0.3185  0.7058 -0.8362
10730SOL    HW133610   5.927   0.290   3.699 -0.1971  0.6277 -0.7265
10730SOL    HW233611   5.878   0.246   3.835  0.1999 -0.2039 -0.8426
10731SOL     OW33612   0.997   4.423   5.036  0.6160  0.3215  0.1702
10731SOL    HW133613   1.079   4.398   5.077  0.1332 -1.5853  0.0582
10731SOL    HW233614   0.993   4.372   4.955  0.8926  2.9594 -1.6372
10732SOL     OW33615   2.173   0.644   5.168  0.1283  0.1586 -0.5017
10732SOL    HW133616   2.236   0.573   5.154 -0.3671 -0.8809  2.0475
10732SOL    HW233617   2.088   0.604   5.150 -0.3995 -0.8022  3.2841
10733SOL     OW33618   6.033   4.546   3.639 -0.0362 -0.4770 -0.0014
10733SOL    HW133619   6.126   4.523   3.651 -0.1272 -0.6035  0.4962
10733SOL    HW233620   6.029   4.582   3.551  0.8524  1.2857  0.6356
10734SOL     OW33621   5.095   0.075   1.888 -0.4995  0.2995  0.1258
10734SOL    HW133622   5.138   0.056   1.804 -2.0095 -3.3236 -0.0394
10734SOL    HW233623   5.013   0.118   1.864  0.2816  1.8111  0.0301
10735SOL     OW33624   8.041   6.999   7.225 -0.4018 -0.6993 -0.1640
10735SOL    HW133625   8.108   7.066   7.212  0.2207 -1.3760 -0.5741
10735SOL    HW233626   8.022   7.001   7.318  0.6495 -0.9123  0.0687
10736SOL     OW33627   4.184   4.502   3.001  0.5785 -0.5319 -0.1976
10736SOL    HW133628   4.107   4.446   2.995  0.6126 -0.7429  1.1262
10736SOL    HW233629   4.223   4.481   3.085  2.0363 -0.3588 -0.7960
10737SOL     OW33630   0.284   3.170   7.671 -0.3752 -0.2040  0.2180
10737SOL    HW133631   0.246   3.251   7.706 -1.0753 -0.4203 -0.0142
10737SOL    HW233632   0.296   3.115   7.748 -1.2668 -0.4205  0.2141
10738SOL     OW33633   4.202   6.258   6.226  0.0241  0.0774 -0.1949
10738SOL    HW133634   4.166   6.300   6.148 -0.0753 -0.9541 -0.7252
10738SOL    HW233635   4.170   6.167   6.222  0.3653 -0.1094  0.8213
10739SOL     OW33636   7.859   3.177   7.457  0.1046 -0.1958  0.0002
10739SOL    HW133637   7.877   3.098   7.407  0.7218  0.2289 -0.4579
10739SOL    HW233638   7.916   3.244   7.418  0.7617  0.0963  1.4152
10740SOL     OW33639   0.529   1.413   5.113 -0.0720 -0.0605  0.4472
10740SOL    HW133640   0.488   1.327   5.120  0.6890 -0.6496 -1.7061
10740SOL    HW233641   0.469   1.464   5.058  1.7378 -0.7948 -2.3724
10741SOL     OW33642   7.765   3.866   2.913  0.3825  0.0044 -0.5071
10741SOL    HW133643   7.808   3.835   2.992 -1.1600 -1.8126 -0.3081
10741SOL    HW233644   7.691   3.918   2.944  0.6496  0.5522 -0.7794
10742SOL     OW33645   4.470   5.550   7.451  0.1117 -0.0387  0.2135
10742SOL    HW133646   4.499   5.515   7.535  0.5046  2.0174  0.9836
10742SOL    HW233647   4.433   5.636   7.471 -0.3498  0.2571 -1.6441
10743SOL     OW33648   7.255   5.710   4.205  0.0649 -0.3273 -0.0105
10743SOL    HW133649   7.333   5.761   4.185 -0.2645  0.2587  0.1793
10743SOL    HW233650   7.204   5.765   4.265  0.0012 -1.1445  0.7049
10744SOL     OW33651   6.769   3.234   2.595  0.1902 -0.2358 -0.3647
10744SOL    HW133652   6.787   3.162   2.535  0.6085 -0.5796  0.1687
10744SOL    HW233653   6.856   3.267   2.619  0.0390 -0.2831  0.2683
10745SOL     OW33654   5.175   1.181   5.828  0.2550 -0.2830  0.5015
10745SOL    HW133655   5.249   1.138   5.870 -1.2648 -3.9833 -0.1978
10745SOL    HW233656   5.173   1.145   5.739 -1.6629  0.6014  0.1241
10746SOL     OW33657   0.916   5.533   7.617 -0.2003 -0.1812 -0.2801
10746SOL    HW133658   0.999   5.580   7.622  0.4362 -0.8199 -3.1522
10746SOL    HW233659   0.933   5.451   7.664  1.0996 -0.6289 -1.4395
10747SOL     OW33660   6.157   2.065   2.812 -0.1559  0.4698 -0.6833
10747SOL    HW133661   6.247   2.041   2.835 -0.6658 -1.0149 -0.1088
10747SOL    HW233662   6.164   2.105   2.725  0.7553 -2.5035 -2.1035
10748SOL     OW33663   0.539   7.434   3.510  0.0196  0.1282 -0.0715
10748SOL    HW133664   0.580   7.510   3.550 -0.7000 -0.0793  1.1428
10748SOL    HW233665   0.462   7.469   3.465  0.9506  0.3916 -1.5411
10749SOL     OW33666   0.411   2.002   1.693 -0.5529 -0.4879 -0.2890
10749SOL    HW133667   0.464   2.066   1.741  0.5784 -0.4969 -1.4613
10749SOL    HW233668   0.336   1.986   1.749 -0.2576  0.9742  0.5756
10750SOL     OW33669   6.939   3.498   1.114 -0.2462 -0.0729  0.4397
10750SOL    HW133670   6.960   3.420   1.165  2.2572  1.1411  1.4536
10750SOL    HW233671   6.910   3.464   1.029  0.3126 -2.0990  0.9963
10751SOL     OW33672   6.559   2.333   3.293 -0.1586 -0.1149  0.3298
10751SOL    HW133673   6.606   2.268   3.242 -0.2411  0.0159  0.0874
10751SOL    HW233674   6.625   2.369   3.353 -0.0622 -0.2662  0.3136
10752SOL     OW33675   3.628   1.009   4.830 -0.3863  0.1406 -0.1731
10752SOL    HW133676   3.558   0.986   4.769  0.5843 -1.4776 -0.7711
10752SOL    HW233677   3.653   1.098   4.807 -0.9620  0.0358 -1.2462
10753SOL     OW33678   5.438   3.151   5.052 -0.0111 -0.2527  0.3848
10753SOL    HW133679   5.387   3.082   5.093 -1.3958  0.7075  0.3545
10753SOL    HW233680   5.508   3.171   5.115  0.6030 -1.8368  0.2621
10754SOL     OW33681   6.738   4.916   4.941  0.1799 -0.2754 -0.2584
10754SOL    HW133682   6.703   4.969   4.870 -0.2268 -2.1757 -1.5498
10754SOL    HW233683   6.733   4.826   4.909 -0.7183 -1.2988  2.4469
10755SOL     OW33684   6.339   3.598   6.983  0.2719 -0.1004  0.1731
10755SOL    HW133685   6.433   3.580   6.984 -0.0637 -2.0947  1.1643
10755SOL    HW233686   6.309   3.574   7.071 -1.0761  1.1280  0.0896
10756SOL     OW33687   4.733   3.875   6.205  0.4777 -0.1459 -0.0401
10756SOL    HW133688   4.775   3.840   6.283 -1.2788  1.0431  1.5189
10756SOL    HW233689   4.698   3.960   6.232 -1.0263 -0.1259 -1.8350
10757SOL     OW33690   5.164   7.517   7.034  0.0386 -0.4739  0.1324
10757SOL    HW133691   5.183   7.439   7.087  0.0040 -0.4882  0.1237
10757SOL    HW233692   5.070   7.529   7.042 -0.2101 -1.3621 -1.1532
10758SOL     OW33693   3.997   5.847   8.014 -0.7316 -0.3055 -0.0876
10758SOL    HW133694   4.023   5.936   8.040  1.3614 -0.2389 -2.0575
10758SOL    HW233695   4.048   5.790   8.072  0.7152 -0.1637 -1.1615
10759SOL     OW33696   0.303   5.637   7.278 -0.0402  0.0561  0.3680
10759SOL    HW133697   0.213   5.606   7.285  0.1664 -0.2126  2.3927
10759SOL    HW233698   0.310   5.671   7.188 -1.7406 -1.1463 -0.2699
10760SOL     OW33699   3.937   2.395   5.346  0.6451 -0.3738  0.2575
10760SOL    HW133700   4.028   2.425   5.355  0.2796  0.1730  2.6975
10760SOL    HW233701   3.930   2.321   5.405 -0.7138  0.0953  0.7153
10761SOL     OW33702   5.075   6.845   7.206  0.0555 -0.3492  0.1690
10761SOL    HW133703   5.105   6.786   7.137 -0.4246 -1.5658  0.9627
10761SOL    HW233704   5.122   6.817   7.285 -1.0754 -0.4850  0.8209
10762SOL     OW33705   6.556   5.884   3.103 -0.1754  0.0941 -0.5531
10762SOL    HW133706   6.598   5.808   3.063  2.9078  1.3719 -0.0153
10762SOL    HW233707   6.549   5.947   3.031  1.1278  0.7265 -0.1665
10763SOL     OW33708   2.907   2.922   1.439  0.3972 -0.0316 -0.0928
10763SOL    HW133709   2.818   2.907   1.470 -0.2257  0.6126 -1.4896
10763SOL    HW233710   2.929   3.010   1.469  0.3300  0.0386 -0.2462
10764SOL     OW33711   0.969   6.337   2.901  0.8370  0.0011  0.4295
10764SOL    HW133712   0.897   6.349   2.963 -0.3015 -1.4962 -0.5284
10764SOL    HW233713   0.961   6.411   2.841  0.0948 -0.1198  0.3608
10765SOL     OW33714   0.482   2.229   1.213 -0.1759 -0.0849 -0.8194
10765SOL    HW133715   0.427   2.243   1.135  0.6859  0.7665 -1.2960
10765SOL    HW233716   0.494   2.134   1.216 -2.6956 -0.4665  0.0448
10766SOL     OW33717   4.406   2.934   7.841 -0.2983  0.1053 -0.1713
10766SOL    HW133718   4.362   2.977   7.913 -1.9735  0.6909 -1.4797
10766SOL    HW233719   4.449   3.004   7.793  2.4360 -0.4781  1.2220
10767SOL     OW33720   5.859   1.696   6.409  0.4237 -0.0879  0.4616
10767SOL    HW133721   5.899   1.769   6.457 -1.9125  2.4193 -1.0919
10767SOL    HW233722   5.770   1.726   6.389  0.1731 -2.3111 -2.4653
10768SOL     OW33723   1.877   5.241   1.616 -0.1241  0.2793  0.4732
10768SOL    HW133724   1.965   5.278   1.604  0.5477 -1.0352  1.0748
10768SOL    HW233725   1.822   5.291   1.556  1.4030 -0.1521 -1.3999
10769SOL     OW33726   5.989   7.737   1.260 -0.0024  0.1111  0.0287
10769SOL    HW133727   5.905   7.728   1.215  0.6916 -0.6626 -1.1658
10769SOL    HW233728   6.032   7.809   1.216 -0.0518  0.5548  0.6887
10770SOL     OW33729   4.535   7.596   4.940 -0.0982 -0.2841 -0.3991
10770SOL    HW133730   4.507   7.507   4.962 -0.5690  0.2781  1.4797
10770SOL    HW233731   4.626   7.600   4.968 -0.7761  0.5160  1.9112
10771SOL     OW33732   0.497   3.389   1.661 -0.2383 -0.2880 -0.0249
10771SOL    HW133733   0.572   3.329   1.665  1.7151  1.8832 -1.3683
10771SOL    HW233734   0.431   3.340   1.611  1.0905 -1.5113 -0.6767
10772SOL     OW33735   5.959   6.792   4.493  1.2405 -0.2634  0.2504
10772SOL    HW133736   5.870   6.823   4.480  1.3860  0.4875  0.9682
10772SOL    HW233737   5.972   6.727   4.424  0.8696  1.1506 -1.2146
10773SOL     OW33738   6.728   0.095   0.381  0.3580  0.6278  0.2666
10773SOL    HW133739   6.780   0.171   0.354  0.8279  0.4060  0.5290
10773SOL    HW233740   6.713   0.108   0.474  1.8095 -0.3774  0.6713
10774SOL     OW33741   5.496   2.617   6.781 -0.1363 -0.3258  0.0220
10774SOL    HW133742   5.569   2.655   6.732 -0.3065  0.7696  0.5877
10774SOL    HW233743   5.430   2.599   6.714  0.0879  0.0414 -0.3058
10775SOL     OW33744   7.475   5.654   1.708  0.4746  0.5966 -0.2534
10775SOL    HW133745   7.408   5.721   1.728  1.8348  1.8114  0.4046
10775SOL    HW233746   7.505   5.624   1.794  1.6900  1.0254 -0.5095
10776SOL     OW33747   3.508   7.408   2.799  0.0953  0.1727  0.2235
10776SOL    HW133748   3.514   7.384   2.892 -2.2546 -0.9930  0.1506
10776SOL    HW233749   3.458   7.490   2.799 -1.1087 -0.5305 -0.0249
10777SOL     OW33750   6.129   1.622   0.369  0.0814  0.1412  0.5180
10777SOL    HW133751   6.182   1.554   0.327 -1.3055 -0.5903 -0.0903
10777SOL    HW233752   6.057   1.638   0.309 -0.1138  1.5267  1.0786
10778SOL     OW33753   6.121   0.825   6.189  0.0665  0.4745 -0.1165
10778SOL    HW133754   6.184   0.759   6.158 -0.8123  0.0919 -1.1541
10778SOL    HW233755   6.036   0.782   6.181 -0.2502  0.2286  3.2064
10779SOL     OW33756   0.043   7.618   1.112  0.0911 -0.3975  0.4215
10779SOL    HW133757   0.043   7.663   1.197 -0.1558  2.4660 -0.9752
10779SOL    HW233758   0.130   7.636   1.076  0.0058 -1.1100 -0.1540
10780SOL     OW33759   0.035   7.202   4.979  0.4251  0.3443 -0.7569
10780SOL    HW133760   0.115   7.180   5.026 -1.3271 -0.8171  1.9229
10780SOL    HW233761  -0.026   7.230   5.047 -1.5262  1.0358 -2.6661
10781SOL     OW33762   5.524   1.902   8.036 -0.8521  0.1130  0.2812
10781SOL    HW133763   5.482   1.930   7.955  2.7766  0.4823 -1.6634
10781SOL    HW233764   5.595   1.965   8.050  0.4859 -1.6576  2.0945
10782SOL     OW33765   4.180   4.759   4.488 -0.5017 -0.6260  0.1946
10782SOL    HW133766   4.140   4.721   4.409 -0.5374 -0.0920 -0.0467
10782SOL    HW233767   4.153   4.850   4.488  0.1543 -0.4216  0.3951
10783SOL     OW33768   0.040   0.364   7.999  0.1615 -0.1697 -0.3103
10783SOL    HW133769   0.080   0.366   8.086 -2.7047 -0.4755  1.1181
10783SOL    HW233770   0.059   0.450   7.962 -2.2756  1.8176  2.5290
10784SOL     OW33771   1.961   0.530   7.115  0.0346  0.2291  0.1728
10784SOL    HW133772   1.913   0.554   7.194  0.1165 -0.5804  0.4770
10784SOL    HW233773   1.930   0.442   7.094  1.5958 -0.4386  0.5476
10785SOL     OW33774   4.080   6.919   4.693  0.1828 -0.2202 -0.4942
10785SOL    HW133775   4.088   6.891   4.602  2.5816  0.5704 -0.5971
10785SOL    HW233776   4.052   7.011   4.687  3.0328  0.7367 -0.6377
10786SOL     OW33777   0.655   5.257   2.741 -0.5926 -0.1088  0.0527
10786SOL    HW133778   0.661   5.162   2.730 -2.8438 -0.5542  1.8646
10786SOL    HW233779   0.623   5.269   2.831 -0.2417  2.3813 -0.0765
10787SOL     OW33780   1.041   4.420   2.994 -0.1537  0.5038 -0.0769
10787SOL    HW133781   1.004   4.458   3.074  0.9885 -1.2733  1.3762
10787SOL    HW233782   1.085   4.341   3.024 -0.5420 -0.7681 -2.6370
10788SOL     OW33783   5.007   6.838   6.548 -0.1818 -0.0389  0.3989
10788SOL    HW133784   4.993   6.800   6.461  0.9058  2.3726 -0.9274
10788SOL    HW233785   4.932   6.897   6.560  0.8902  1.4618 -0.0270
10789SOL     OW33786   0.843   4.532   4.717 -0.6119 -0.0264  0.5634
10789SOL    HW133787   0.900   4.608   4.733 -2.1203  0.8511  2.0528
10789SOL    HW233788   0.871   4.467   4.782 -1.2633  0.3974  1.2820
10790SOL     OW33789   7.552   4.886   7.038 -0.1875 -0.4913  0.0517
10790SOL    HW133790   7.562   4.981   7.034 -1.1599 -0.3818 -0.1081
10790SOL    HW233791   7.580   4.855   6.952 -2.5591 -0.0408 -0.9753
10791SOL     OW33792   6.000   5.017   5.558  0.4567  0.1922 -0.5094
10791SOL    HW133793   5.923   5.060   5.520  1.7139  1.6100 -1.5671
10791SOL    HW233794   5.974   4.925   5.566 -1.6803  0.7758  0.1054
10792SOL     OW33795   3.694   3.787   3.345 -0.0924 -0.3346  0.3203
10792SOL    HW133796   3.705   3.820   3.256  0.2047 -0.1970  0.4051
10792SOL    HW233797   3.687   3.867   3.399  2.4103 -0.3331  0.7583
10793SOL     OW33798   2.251   5.563   6.967  0.3648  0.7522 -0.3010
10793SOL    HW133799   2.246   5.550   6.872  0.8869  0.9550 -0.3556
10793SOL    HW233800   2.215   5.482   7.003 -0.3757  0.8996 -0.6680
10794SOL     OW33801   5.462   3.458   4.930  0.0257  0.1637 -0.1114
10794SOL    HW133802   5.525   3.403   4.882  0.2711 -0.6303  1.0784
10794SOL    HW233803   5.395   3.397   4.960 -0.2789  0.6932  0.3002
10795SOL     OW33804   3.804   7.731   4.873 -0.1870  0.4221  0.3756
10795SOL    HW133805   3.891   7.765   4.852  0.7927 -0.8787  2.1521
10795SOL    HW233806   3.746   7.807   4.862  1.1398  1.3154 -0.8211
10796SOL     OW33807   6.277   1.775   4.213  0.2423 -0.1654 -0.2617
10796SOL    HW133808   6.196   1.814   4.245  0.9317 -0.0652  1.4823
10796SOL    HW233809   6.296   1.822   4.132 -0.4922  1.0875  0.2682
10797SOL     OW33810   5.551   7.339   1.226  0.4287  0.6836  0.3305
10797SOL    HW133811   5.647   7.344   1.227  0.6270 -0.9751 -2.0348
10797SOL    HW233812   5.525   7.399   1.155 -0.1952  0.3066  0.2353
10798SOL     OW33813   4.244   2.021   2.846  0.2560  0.3704  0.9450
10798SOL    HW133814   4.185   2.078   2.798  0.4930  1.6873  2.1531
10798SOL    HW233815   4.200   1.936   2.847 -0.0079  0.4337 -1.0541
10799SOL     OW33816   5.086   6.961   0.822  0.4689 -0.4303 -0.0122
10799SOL    HW133817   5.087   6.884   0.879 -2.0165  0.0706  0.8412
10799SOL    HW233818   5.058   7.033   0.880  3.7956  1.4626 -0.4975
10800SOL     OW33819   6.259   2.225   7.230 -0.0137  0.4029  0.6289
10800SOL    HW133820   6.200   2.289   7.190  0.5720  1.9738  2.1535
10800SOL    HW233821   6.342   2.239   7.185 -0.3390 -0.6216 -0.3292
10801SOL     OW33822   0.579   0.620   5.812  0.4768 -0.3084 -0.6351
10801SOL    HW133823   0.598   0.608   5.905 -1.7611 -0.0934 -0.1071
10801SOL    HW233824   0.620   0.703   5.789 -0.0995  0.3107  0.5168
10802SOL     OW33825   6.082   4.033   0.171  0.0174 -0.6934  0.0456
10802SOL    HW133826   6.006   3.975   0.174  0.5234 -1.4670 -1.3355
10802SOL    HW233827   6.120   4.019   0.084  0.9052  0.7616  0.1628
10803SOL     OW33828   1.443   1.067   4.544  0.5004  0.1642  0.1191
10803SOL    HW133829   1.532   1.056   4.578  0.0005 -0.3218  1.3221
10803SOL    HW233830   1.442   1.156   4.508  2.2217 -0.7236 -2.3091
10804SOL     OW33831   2.854   2.000   7.600 -0.1024 -0.2564  0.1380
10804SOL    HW133832   2.826   2.082   7.560 -1.9339 -1.2837 -0.7783
10804SOL    HW233833   2.944   1.988   7.569  0.7712  2.0982  1.4941
10805SOL     OW33834   6.480   5.684   2.547  0.6092  0.1252  0.0661
10805SOL    HW133835   6.565   5.727   2.533  1.3205 -1.3455 -0.3270
10805SOL    HW233836   6.461   5.641   2.464  0.2362 -0.8465  0.6417
10806SOL     OW33837   4.935   6.401   2.947 -0.3267 -0.3454  0.2311
10806SOL    HW133838   4.954   6.374   2.857 -1.3288 -1.0966  0.2328
10806SOL    HW233839   4.906   6.491   2.940 -1.8508 -0.8549 -0.4030
10807SOL     OW33840   7.315   5.740   1.495 -0.3592  0.3130  0.0045
10807SOL    HW133841   7.372   5.769   1.424 -0.0176 -1.2396 -0.3800
10807SOL    HW233842   7.369   5.680   1.546  0.2799  3.1755  3.0841
10808SOL     OW33843   6.170   4.312   2.647  0.3253  0.3343  0.0081
10808SOL    HW133844   6.160   4.338   2.555 -0.4876 -1.2704 -0.3991
10808SOL    HW233845   6.107   4.366   2.694  0.4002  0.8288 -0.4471
10809SOL     OW33846   5.705   0.371   0.645 -0.2623 -0.2492 -0.5456
10809SOL    HW133847   5.653   0.391   0.723 -3.2413 -0.2570 -2.3711
10809SOL    HW233848   5.690   0.278   0.629  0.5706 -0.3215 -0.9826
10810SOL     OW33849   1.831   2.131   6.087 -0.2056  0.1160  0.2175
10810SOL    HW133850   1.825   2.141   6.182 -0.7335 -0.1655  0.2148
10810SOL    HW233851   1.900   2.065   6.075 -1.1759 -0.9758  0.4715
10811SOL     OW33852   1.425   4.505   2.163  0.4344  0.0192 -0.3016
10811SOL    HW133853   1.485   4.495   2.089  1.5776 -0.2219  0.6238
10811SOL    HW233854   1.378   4.587   2.146  0.3978 -0.2237 -1.4658
10812SOL     OW33855   5.393   4.923   3.262  0.0887 -0.1093 -0.2605
10812SOL    HW133856   5.362   4.834   3.278 -0.9247  0.3230  0.2109
10812SOL    HW233857   5.379   4.937   3.169 -0.8802 -0.0203 -0.1081
10813SOL     OW33858   6.110   3.989   3.714 -0.7891 -0.3998 -0.1072
10813SOL    HW133859   6.079   3.927   3.780 -0.7737  0.1098  0.3816
10813SOL    HW233860   6.185   3.945   3.674 -1.3597 -1.0968 -0.4170
10814SOL     OW33861   4.247   4.215   3.870  0.5773  0.7445  0.3361
10814SOL    HW133862   4.262   4.303   3.835  1.6266  0.7821  0.8436
10814SOL    HW233863   4.330   4.169   3.854 -0.2260 -0.4252 -0.6797
10815SOL     OW33864   4.763   3.203   7.538 -0.6252 -0.2769  0.5374
10815SOL    HW133865   4.834   3.232   7.594 -0.5662 -0.5899  0.6265
10815SOL    HW233866   4.734   3.121   7.577 -2.3458  0.8023  1.6715
10816SOL     OW33867   6.168   5.720   3.415  0.1120  0.5883  0.2543
10816SOL    HW133868   6.240   5.762   3.369 -0.5572  3.3016  1.5069
10816SOL    HW233869   6.089   5.744   3.366 -0.2229  0.1820  0.5804
10817SOL     OW33870   0.976   1.920   5.470  0.3587  0.1438 -0.4030
10817SOL    HW133871   0.987   1.974   5.549  0.2104 -2.6696  1.6781
10817SOL    HW233872   1.061   1.877   5.458  0.1554 -0.0109 -1.3685
10818SOL     OW33873   1.636   4.999   6.286  0.1028 -0.2908 -0.5243
10818SOL    HW133874   1.643   5.047   6.204  0.5298 -0.5332 -0.6322
10818SOL    HW233875   1.723   4.963   6.301  0.6283  1.4812  1.1052
10819SOL     OW33876   2.200   8.001   0.453 -0.1750  0.1798 -0.7641
10819SOL    HW133877   2.119   7.958   0.424  0.1534 -1.0801  0.0747
10819SOL    HW233878   2.269   7.949   0.413  0.2328  0.0476  0.0836
10820SOL     OW33879   0.410   4.095   0.390 -0.7082  0.2761  0.3694
10820SOL    HW133880   0.341   4.045   0.347 -0.2505 -0.9763  1.0440
10820SOL    HW233881   0.372   4.182   0.404 -1.5355  0.1168 -0.7812
10821SOL     OW33882   6.723   3.018   2.012 -0.2357  0.6086  0.3722
10821SOL    HW133883   6.628   3.003   2.007 -0.2332 -0.1596  1.9831
10821SOL    HW233884   6.745   3.059   1.928 -1.8745  0.1762 -0.3168
10822SOL     OW33885   7.154   7.052   4.221  0.0906 -0.4956 -0.2309
10822SOL    HW133886   7.176   7.131   4.170  0.8022 -0.5558 -0.0332
10822SOL    HW233887   7.103   6.998   4.160  0.9872 -0.5944 -0.9259
10823SOL     OW33888   5.404   1.042   1.816 -0.7508  1.1068  0.4069
10823SOL    HW133889   5.386   1.025   1.724  0.9957  0.6590  0.1187
10823SOL    HW233890   5.343   0.986   1.863 -0.0972 -0.4252 -0.5130
10824SOL     OW33891   6.249   4.274   6.624 -0.2750 -0.0658 -1.2961
10824SOL    HW133892   6.344   4.284   6.633  0.2081 -2.2972 -2.8126
10824SOL    HW233893   6.212   4.325   6.696  1.9976  1.7696 -1.2933
10825SOL     OW33894   7.401   6.698   0.087  0.2154  0.4018 -0.1493
10825SOL    HW133895   7.417   6.638   0.015 -2.2608 -0.3994 -0.1426
10825SOL    HW233896   7.447   6.659   0.162  0.3086 -0.3923 -0.6136
10826SOL     OW33897   7.231   1.105   2.889  0.6277 -0.7292 -0.3036
10826SOL    HW133898   7.219   1.128   2.981  0.2876 -1.6179 -0.1156
10826SOL    HW233899   7.316   1.061   2.886  0.6908 -0.5979 -0.4315
10827SOL     OW33900   6.139   6.665   5.532 -0.6823  0.1981 -0.3883
10827SOL    HW133901   6.176   6.636   5.448 -1.0021 -1.1390 -0.0966
10827SOL    HW233902   6.070   6.601   5.550  0.6320 -0.7402  1.8231
10828SOL     OW33903   2.211   7.026   5.134  0.0588  0.0503  0.1634
10828SOL    HW133904   2.194   7.047   5.226 -0.2042  1.2692 -0.1471
10828SOL    HW233905   2.306   7.033   5.125  0.0537  0.2912  0.2718
10829SOL     OW33906   3.186   0.746   1.114 -0.0071 -0.3490 -0.2855
10829SOL    HW133907   3.147   0.830   1.140 -0.8393 -0.6983 -0.3587
10829SOL    HW233908   3.181   0.745   1.019  0.1747 -0.4060 -0.2956
10830SOL     OW33909   0.522   3.457   5.474 -0.2892 -0.6278  0.2428
10830SOL    HW133910   0.523   3.452   5.569  2.6515 -0.6965  0.3086
10830SOL    HW233911   0.530   3.551   5.455 -1.0789 -0.5941  0.0273
10831SOL     OW33912   3.930   1.101   1.766 -0.5333  0.1892 -0.5858
10831SOL    HW133913   4.012   1.146   1.787 -0.1773 -0.8930  0.4680
10831SOL    HW233914   3.936   1.084   1.672  0.3512  0.3167 -0.5667
10832SOL     OW33915   1.416   4.675   4.497 -0.8447 -0.7106 -0.1447
10832SOL    HW133916   1.437   4.738   4.566 -0.4478  0.1455 -1.0217
10832SOL    HW233917   1.321   4.664   4.502 -1.4065  2.3160 -1.9067
10833SOL     OW33918   5.105   6.441   7.129 -0.2936  0.1693  0.3849
10833SOL    HW133919   5.051   6.514   7.098  2.3493  1.6592 -1.1433
10833SOL    HW233920   5.110   6.381   7.054  1.1616  0.7358 -0.0224
10834SOL     OW33921   0.350   2.487   7.951 -0.4797 -0.5959 -0.5596
10834SOL    HW133922   0.316   2.513   8.037  0.6929  1.1090 -0.5784
10834SOL    HW233923   0.346   2.566   7.898  0.2110 -1.2522 -1.6334
10835SOL     OW33924   7.313   5.992   1.660  0.7907 -0.1436  0.2994
10835SOL    HW133925   7.326   6.086   1.650  0.2890  0.0294  1.2392
10835SOL    HW233926   7.382   5.953   1.606  0.8002  0.7546 -0.3537
10836SOL     OW33927   0.354   0.768   6.241 -0.7916  0.2651 -0.0938
10836SOL    HW133928   0.380   0.747   6.331 -0.6862  1.6085  0.1994
10836SOL    HW233929   0.392   0.854   6.224  0.2893 -0.4978 -1.8897
10837SOL     OW33930   7.290   4.611   3.039  0.2545  0.0384  0.7613
10837SOL    HW133931   7.323   4.700   3.054  1.0167  0.0618 -0.8344
10837SOL    HW233932   7.292   4.570   3.125 -0.6159  1.7181  1.6345
10838SOL     OW33933   1.799   3.196   3.833 -0.1813 -0.1151 -0.5803
10838SOL    HW133934   1.736   3.255   3.874 -2.6166 -1.7116 -1.7706
10838SOL    HW233935   1.809   3.228   3.744  1.3947  0.5713 -0.2041
10839SOL     OW33936   2.780   4.955   2.010  0.0254  0.2002  0.2274
10839SOL    HW133937   2.701   4.974   2.059 -0.7265 -0.5074 -0.6748
10839SOL    HW233938   2.793   5.033   1.955 -0.2107  0.1985  0.1677
10840SOL     OW33939   3.645   4.740   1.143 -0.6554  0.6304  0.1390
10840SOL    HW133940   3.569   4.768   1.092 -0.8047  1.6371  0.8844
10840SOL    HW233941   3.688   4.821   1.169  1.0923  0.0785 -0.8384
10841SOL     OW33942   4.351   0.265   2.822  0.6593  0.2876  0.0533
10841SOL    HW133943   4.332   0.294   2.733  1.4439  2.4632  0.5237
10841SOL    HW233944   4.282   0.306   2.876  0.6814 -0.3047  0.5432
10842SOL     OW33945   7.091   3.951   6.752 -0.4225  0.1402  0.7498
10842SOL    HW133946   7.074   3.865   6.791 -0.8598 -0.0695  0.1211
10842SOL    HW233947   7.166   3.936   6.694  0.8064  0.6522  2.1482
10843SOL     OW33948   0.872   1.970   4.489  0.0823  0.3422 -1.0376
10843SOL    HW133949   0.877   2.058   4.526 -0.6088  0.0860 -0.2977
10843SOL    HW233950   0.829   1.918   4.557 -0.3360 -0.3663 -1.8227
10844SOL     OW33951   6.280   0.593   6.167  0.0315 -0.2909  0.6750
10844SOL    HW133952   6.218   0.534   6.211  1.3880 -1.0691  1.6420
10844SOL    HW233953   6.294   0.553   6.081 -2.4019  1.0728 -0.4813
10845SOL     OW33954   4.049   6.222   5.969 -0.3782  0.1251  0.1277
10845SOL    HW133955   4.073   6.231   5.876 -1.7581 -2.6538 -0.5966
10845SOL    HW233956   4.109   6.156   6.003 -0.8568  0.0475  0.8327
10846SOL     OW33957   1.092   6.469   5.199  0.3537  0.3538 -0.1990
10846SOL    HW133958   1.138   6.484   5.282  2.0214 -0.7408 -0.8667
10846SOL    HW233959   1.128   6.535   5.139  1.4664 -0.7985 -0.8505
10847SOL     OW33960   2.606   2.321   5.710  0.2813 -0.3007 -0.1256
10847SOL    HW133961   2.628   2.275   5.791  0.0253 -0.5829 -0.2162
10847SOL    HW233962   2.689   2.358   5.680  0.3427 -0.0268  0.3678
10848SOL     OW33963   6.201   1.962   2.499 -0.2434 -0.1435  0.1415
10848SOL    HW133964   6.287   1.995   2.474 -0.6931  1.2883  0.4083
10848SOL    HW233965   6.220   1.885   2.553  0.8081 -1.1227 -1.5107
10849SOL     OW33966   3.961   3.250   4.246 -0.1826 -0.4918 -0.5431
10849SOL    HW133967   3.966   3.160   4.280 -2.2883 -0.5661 -0.2661
10849SOL    HW233968   3.983   3.242   4.153 -0.0162 -1.2400 -0.4456
10850SOL     OW33969   5.105   4.884   0.883 -0.3261  0.0141  0.5119
10850SOL    HW133970   5.184   4.839   0.855  0.4344  0.5406  1.7428
10850SOL    HW233971   5.034   4.822   0.865  0.3768 -0.5442 -0.3998
10851SOL     OW33972   5.065   3.514   3.982 -0.0809 -0.0327  0.2387
10851SOL    HW133973   5.008   3.455   3.933  1.1817 -0.8898 -0.2386
10851SOL    HW233974   5.113   3.457   4.042 -0.1101  0.7471  1.0205
10852SOL     OW33975   1.001   5.282   5.578  0.2362 -0.1539  0.4458
10852SOL    HW133976   1.076   5.340   5.591  0.1158  0.3392 -0.8597
10852SOL    HW233977   1.040   5.198   5.552  0.4319 -0.8606  2.8567
10853SOL     OW33978   4.356   0.977   7.043 -0.0431 -0.1252  0.3144
10853SOL    HW133979   4.268   0.955   7.073 -0.6102 -0.5438 -1.5208
10853SOL    HW233980   4.413   0.959   7.118 -1.2194 -2.2093  0.7719
10854SOL     OW33981   6.526   6.203   5.228  0.0759 -0.2514  0.1705
10854SOL    HW133982   6.447   6.150   5.241 -0.0808 -0.1402 -0.3077
10854SOL    HW233983   6.557   6.222   5.317  0.3031 -1.3841  0.3531
10855SOL     OW33984   2.670   5.737   6.170  0.2169 -0.0464  0.0869
10855SOL    HW133985   2.627   5.682   6.235 -2.9206  0.3281 -1.4839
10855SOL    HW233986   2.717   5.803   6.222 -3.4215  1.2051  2.1427
10856SOL     OW33987   6.724   1.192   6.479  0.5449 -0.2606 -0.3051
10856SOL    HW133988   6.767   1.112   6.509 -0.4897 -0.2455  1.3507
10856SOL    HW233989   6.632   1.181   6.503  0.1636  0.9635 -1.0634
10857SOL     OW33990   4.229   7.307   1.687 -0.4522 -0.4370 -0.1359
10857SOL    HW133991   4.144   7.298   1.644  0.0960  2.1428 -1.9359
10857SOL    HW233992   4.212   7.364   1.762 -0.3534 -0.0781 -0.3848
10858SOL     OW33993   5.709   2.686   6.649 -0.5789  0.0695  0.2794
10858SOL    HW133994   5.800   2.661   6.635 -0.5656 -0.4170  1.1402
10858SOL    HW233995   5.713   2.778   6.675 -0.3908  0.2142 -0.2485
10859SOL     OW33996   3.242   3.364   4.702 -0.1597  0.1594 -0.6029
10859SOL    HW133997   3.241   3.455   4.730  0.1775  0.0465 -0.2141
10859SOL    HW233998   3.328   3.352   4.660  1.2116 -0.8119  2.2184
10860SOL     OW33999   7.770   5.204   3.727 -0.0291 -0.7244  0.2678
10860SOL    HW134000   7.760   5.111   3.750 -1.1772 -0.8232 -0.5298
10860SOL    HW234001   7.864   5.219   3.732  0.0591 -1.5188  1.9181
10861SOL     OW34002   5.624   3.335   0.726  0.0949  0.3724 -0.3968
10861SOL    HW134003   5.639   3.350   0.819  0.4080  1.4782 -0.6121
10861SOL    HW234004   5.555   3.269   0.723 -0.5034  0.9306  0.6114
10862SOL     OW34005   0.283   1.144   0.536 -0.2550  0.0763  0.4638
10862SOL    HW134006   0.203   1.122   0.582  0.5598 -1.4363  1.2297
10862SOL    HW234007   0.351   1.090   0.577  0.8075 -0.1333 -1.4181
10863SOL     OW34008   2.493   1.643   2.986 -0.2571  0.6249  0.2680
10863SOL    HW134009   2.429   1.668   3.052 -0.5008 -0.2240  0.3611
10863SOL    HW234010   2.558   1.592   3.033 -0.9500 -0.8357 -0.3026
10864SOL     OW34011   7.270   5.467   0.866 -0.3752  0.4389  0.5556
10864SOL    HW134012   7.178   5.490   0.861 -0.2471  1.0910  1.1086
10864SOL    HW234013   7.271   5.382   0.911 -0.8438 -0.7017 -1.4513
10865SOL     OW34014   6.944   0.927   5.233  0.8624 -0.6095 -0.1723
10865SOL    HW134015   6.968   0.841   5.197 -0.6272 -0.7410 -0.9451
10865SOL    HW234016   7.004   0.940   5.306 -0.8822 -3.7752  2.0756
10866SOL     OW34017   5.569   1.023   2.808  0.2151  0.1889  0.2004
10866SOL    HW134018   5.550   0.936   2.773  3.0260 -0.4392 -0.0309
10866SOL    HW234019   5.519   1.027   2.889  0.7668 -2.1109  0.7451
10867SOL     OW34020   2.761   6.793   6.907 -0.3876  0.0996 -0.2107
10867SOL    HW134021   2.826   6.851   6.948 -1.2858 -0.0715  1.5782
10867SOL    HW234022   2.744   6.832   6.822  0.1854  1.5932  0.3249
10868SOL     OW34023   2.191   7.067   5.395  0.2324  0.4381  0.0638
10868SOL    HW134024   2.149   7.147   5.365  1.4080  1.4909  1.0900
10868SOL    HW234025   2.155   7.051   5.483 -0.3898 -0.4894 -0.3356
10869SOL     OW34026   6.643   7.083   7.438  0.1458  0.2017  0.5430
10869SOL    HW134027   6.569   7.046   7.389 -0.0549 -0.0214  1.0146
10869SOL    HW234028   6.604   7.150   7.494  0.4184  0.6648  0.1836
10870SOL     OW34029   6.723   5.477   2.430  0.2794  0.1639  0.3674
10870SOL    HW134030   6.795   5.487   2.491  0.8319 -0.4803 -0.1663
10870SOL    HW234031   6.701   5.383   2.433 -0.6445  0.3717  0.6394
10871SOL     OW34032   3.404   1.529   3.877 -0.1922  0.1902 -0.6373
10871SOL    HW134033   3.451   1.467   3.933 -1.1416  0.1728  0.1762
10871SOL    HW234034   3.449   1.612   3.889  0.6633 -0.1783 -1.1975
10872SOL     OW34035   7.526   5.355   6.637  0.5613  0.1646 -0.1920
10872SOL    HW134036   7.466   5.363   6.563 -0.7854  3.2108  1.0309
10872SOL    HW234037   7.608   5.395   6.606  0.1865  0.8975 -0.2611
10873SOL     OW34038   0.998   1.450   5.804  0.2486 -0.2199 -0.0672
10873SOL    HW134039   0.982   1.419   5.715  0.0798 -0.1542 -0.0611
10873SOL    HW234040   1.062   1.389   5.840  1.5763  0.7072 -0.7807
10874SOL     OW34041   3.492   0.494   4.519  0.5644  0.6643 -0.1794
10874SOL    HW134042   3.462   0.422   4.462  1.6165  0.4763 -0.5204
10874SOL    HW234043   3.412   0.528   4.558  0.0983 -1.3093  0.7301
10875SOL     OW34044   7.143   1.345   5.734 -0.0787  0.1175 -0.5093
10875SOL    HW134045   7.093   1.391   5.802 -0.5787  0.2113 -0.9301
10875SOL    HW234046   7.098   1.367   5.653 -3.3392 -4.6549 -0.4618
10876SOL     OW34047   7.795   4.386   0.539 -0.0251  0.1276  0.0077
10876SOL    HW134048   7.773   4.477   0.557 -1.2480 -0.2078  0.3122
10876SOL    HW234049   7.750   4.336   0.607  1.9210 -0.6285  0.8192
10877SOL     OW34050   6.275   5.029   5.252 -0.5959 -0.0322  0.0656
10877SOL    HW134051   6.262   4.955   5.312 -1.7305  0.5252  0.5522
10877SOL    HW234052   6.188   5.045   5.215 -0.2715  0.7662 -0.3746
10878SOL     OW34053   7.739   1.329   5.262  0.3206 -0.1687  0.2876
10878SOL    HW134054   7.823   1.293   5.233 -0.1243 -1.7682  0.8552
10878SOL    HW234055   7.750   1.424   5.256  1.2581 -0.3663 -2.1844
10879SOL     OW34056   5.993   5.044   0.060  0.1517  0.6119  0.1329
10879SOL    HW134057   5.977   5.129   0.019 -0.6565 -0.2201 -1.3693
10879SOL    HW234058   6.067   5.008   0.011 -0.6550 -0.2859 -0.4549
10880SOL     OW34059   1.071   6.223   4.290  0.0374  0.3489  0.2896
10880SOL    HW134060   1.101   6.156   4.352  1.6693  1.9054  1.2812
10880SOL    HW234061   1.003   6.271   4.338 -0.3071  0.1282  0.0213
10881SOL     OW34062   2.506   6.837   0.823 -0.6332 -0.1391  0.1671
10881SOL    HW134063   2.574   6.793   0.773 -0.3234 -1.1857  1.4334
10881SOL    HW234064   2.514   6.930   0.799  0.7348 -0.3457 -0.2728
10882SOL     OW34065   4.156   1.362   0.324 -0.4567 -0.2645 -0.1879
10882SOL    HW134066   4.211   1.433   0.292  0.1878 -1.8186 -2.8275
10882SOL    HW234067   4.085   1.356   0.261 -2.7219  0.4505  2.1196
10883SOL     OW34068   2.262   1.423   5.185  0.3616  0.3972 -0.3283
10883SOL    HW134069   2.303   1.346   5.144  1.4077  0.1599  1.0989
10883SOL    HW234070   2.178   1.390   5.217 -1.2240  0.9465 -3.4949
10884SOL     OW34071   0.781   3.688   3.848 -0.2028  0.3154 -0.9540
10884SOL    HW134072   0.816   3.640   3.923 -1.0058  0.6975 -0.3265
10884SOL    HW234073   0.857   3.703   3.792  0.2228 -0.8989 -0.7332
10885SOL     OW34074   2.670   6.401   2.132 -0.2243 -0.1207 -0.4530
10885SOL    HW134075   2.682   6.446   2.215 -1.6136  1.2762 -0.9621
10885SOL    HW234076   2.757   6.369   2.109  0.1405 -0.7942  1.6538
10886SOL     OW34077   6.259   0.128   1.520 -0.5265 -0.5460  0.3294
10886SOL    HW134078   6.312   0.048   1.520  0.5451  0.1321  0.6483
10886SOL    HW234079   6.196   0.114   1.591  1.8478  0.2047  2.8000
10887SOL     OW34080   0.473   1.304   5.570 -0.7671  0.0055 -0.1013
10887SOL    HW134081   0.564   1.275   5.565 -0.6909  0.5233 -2.7995
10887SOL    HW234082   0.478   1.398   5.585 -0.8446  0.1318 -0.8582
10888SOL     OW34083   7.179   1.121   6.696 -0.1473  0.0480 -0.0187
10888SOL    HW134084   7.221   1.053   6.749  0.3982 -1.1815 -1.9310
10888SOL    HW234085   7.103   1.149   6.747  1.7131  0.7698  2.5576
10889SOL     OW34086   5.658   5.562   2.629  0.4126 -0.8506 -0.2768
10889SOL    HW134087   5.687   5.639   2.579  0.6509 -0.4913  0.3999
10889SOL    HW234088   5.712   5.562   2.707 -0.9192 -0.5652  0.6852
10890SOL     OW34089   1.253   4.405   1.390 -0.2125  0.2874  0.5365
10890SOL    HW134090   1.320   4.350   1.430 -0.9759  0.8588  2.7269
10890SOL    HW234091   1.196   4.343   1.344  1.8909 -0.1840 -1.6862
10891SOL     OW34092   0.739   3.861   5.736  0.5575  0.0817  0.4038
10891SOL    HW134093   0.813   3.817   5.778  0.9031 -0.7795 -1.0199
10891SOL    HW234094   0.779   3.912   5.665 -0.1809 -0.2721 -0.2844
10892SOL     OW34095   1.931   2.610   1.781  0.0961  0.1996  0.5381
10892SOL    HW134096   1.885   2.643   1.704  0.2751 -0.0767  0.3131
10892SOL    HW234097   1.912   2.516   1.782 -3.0169  0.6582  2.8783
10893SOL     OW34098   3.184   1.978   4.586  0.1426 -0.2241 -0.1545
10893SOL    HW134099   3.168   1.884   4.574  0.8472 -0.5208  1.0575
10893SOL    HW234100   3.125   2.020   4.523  1.1471 -1.5158 -2.0821
10894SOL     OW34101   3.202   0.183   4.821  0.1926  0.3343 -0.7078
10894SOL    HW134102   3.138   0.253   4.834 -0.1311  0.2228 -1.6229
10894SOL    HW234103   3.166   0.109   4.868 -0.8877 -0.0232 -2.0161
10895SOL     OW34104   7.848   7.200   4.153 -0.0115 -0.8675  0.4119
10895SOL    HW134105   7.820   7.169   4.067  0.2390  0.9821 -0.3723
10895SOL    HW234106   7.884   7.122   4.196  0.0245 -1.7824 -1.2117
10896SOL     OW34107   6.738   1.548   1.281  0.2319 -0.3658 -0.1718
10896SOL    HW134108   6.749   1.458   1.311  0.8902  0.2346  1.4645
10896SOL    HW234109   6.826   1.577   1.257  0.0773 -0.0284 -0.3412
10897SOL     OW34110   0.572   4.030   6.794 -0.7948 -0.6876 -0.4032
10897SOL    HW134111   0.580   3.965   6.864  1.2745 -0.9187 -0.7866
10897SOL    HW234112   0.641   4.007   6.731 -0.6287  1.2861 -1.0255
10898SOL     OW34113   0.988   2.097   4.871 -0.0695 -0.3292  0.0481
10898SOL    HW134114   1.035   2.035   4.927 -0.3222 -0.8899 -0.3579
10898SOL    HW234115   0.896   2.087   4.895 -0.1642 -0.4733 -0.3672
10899SOL     OW34116   4.892   7.404   5.261  0.3294 -0.3463 -0.0014
10899SOL    HW134117   4.841   7.423   5.182  0.3751  1.0735  0.2845
10899SOL    HW234118   4.943   7.327   5.239 -0.0027 -0.2387 -1.2067
10900SOL     OW34119   1.136   5.272   5.174 -0.0688 -0.1790 -0.2589
10900SOL    HW134120   1.205   5.271   5.108 -0.6197  0.0098 -0.8519
10900SOL    HW234121   1.182   5.291   5.256  0.5004  0.6945 -0.7509
10901SOL     OW34122   1.115   6.950   3.951 -0.0366 -0.1270  0.4305
10901SOL    HW134123   1.066   6.926   3.872 -0.7435 -1.1574  1.1492
10901SOL    HW234124   1.163   6.870   3.973 -0.7493 -0.2196  1.6852
10902SOL     OW34125   2.235   3.778   5.163 -0.0103  0.0224 -0.1871
10902SOL    HW134126   2.145   3.760   5.137 -0.0292 -1.1545  0.6598
10902SOL    HW234127   2.228   3.816   5.251  0.2611  0.9337 -0.5463
10903SOL     OW34128   4.776   7.501   5.023  0.0085  0.3432 -0.0247
10903SOL    HW134129   4.780   7.432   4.957  0.2635 -1.0524  1.3895
10903SOL    HW234130   4.852   7.557   5.004  1.0548 -1.0013  0.0968
10904SOL     OW34131   7.309   3.905   3.998  0.1868 -0.4943 -0.4461
10904SOL    HW134132   7.278   3.996   4.001 -0.3643 -0.6488 -1.0797
10904SOL    HW234133   7.286   3.869   4.083  0.8481  0.0918 -0.0077
10905SOL     OW34134   0.990   0.978   3.944 -0.0054  0.3534  0.1088
10905SOL    HW134135   1.033   1.011   4.023  0.1408 -0.5986  0.4415
10905SOL    HW234136   1.008   0.884   3.945  0.1320  0.3557 -1.1510
10906SOL     OW34137   4.415   4.651   1.238 -0.3715 -0.0278 -0.1937
10906SOL    HW134138   4.361   4.586   1.284 -0.5712 -0.1052 -0.5316
10906SOL    HW234139   4.504   4.629   1.262 -0.5653  1.4884  2.1936
10907SOL     OW34140   2.798   3.671   4.992  0.5436  0.6233  0.1549
10907SOL    HW134141   2.853   3.749   4.997 -0.4779  1.5964 -2.5074
10907SOL    HW234142   2.860   3.599   4.979  1.3687  1.1880  0.8155
10908SOL     OW34143   2.166   0.024   5.431 -0.1980 -0.2953 -0.4512
10908SOL    HW134144   2.172   0.042   5.525 -0.2891  0.6612 -0.6186
10908SOL    HW234145   2.220   0.092   5.391 -0.1313 -0.7206 -1.0988
10909SOL     OW34146   1.712   3.985   5.287 -0.1590 -0.0910 -0.4497
10909SOL    HW134147   1.780   3.960   5.349 -0.9005 -1.9868 -0.3321
10909SOL    HW234148   1.649   4.036   5.339  0.8196  1.1605 -0.4320
10910SOL     OW34149   3.870   6.201   3.544 -0.0769 -0.2590  0.3322
10910SOL    HW134150   3.850   6.295   3.549 -0.7502 -0.3017 -0.9744
10910SOL    HW234151   3.835   6.165   3.626 -0.5101  0.5185  0.5084
10911SOL     OW34152   6.362   4.404   4.372 -0.2257  0.0115  0.2630
10911SOL    HW134153   6.271   4.395   4.402 -0.2181 -0.5964  0.1236
10911SOL    HW234154   6.385   4.316   4.341  0.6083  0.0266  0.8415
10912SOL     OW34155   5.385   6.132   7.747 -0.4548 -0.0246  0.2880
10912SOL    HW134156   5.457   6.170   7.698 -0.5387 -0.4926 -0.2134
10912SOL    HW234157   5.308   6.183   7.720 -0.2277  0.8785  1.2889
10913SOL     OW34158   3.092   7.620   0.582 -0.1081 -0.9914 -0.4138
10913SOL    HW134159   3.167   7.671   0.548  0.5199  0.9688  3.4010
10913SOL    HW234160   3.132   7.556   0.640 -1.3005 -1.4105 -0.0457
10914SOL     OW34161   7.250   1.339   1.640 -0.2674 -0.6013 -0.1883
10914SOL    HW134162   7.276   1.325   1.731 -2.0050 -2.0548  0.1499
10914SOL    HW234163   7.328   1.315   1.589  0.7541  0.3232  0.8915
10915SOL     OW34164   6.186   4.068   6.078  0.0202  0.1945 -0.0572
10915SOL    HW134165   6.194   4.105   6.166  1.2683  0.7083 -0.3653
10915SOL    HW234166   6.117   4.120   6.036  0.1217  0.6093  0.2840
10916SOL     OW34167   0.298   2.720   4.731 -0.2754  0.2511  0.2123
10916SOL    HW134168   0.300   2.815   4.731  0.8741  0.3385 -2.9798
10916SOL    HW234169   0.210   2.697   4.704 -0.5244  0.3756  0.8938
10917SOL     OW34170   0.610   6.308   0.522 -0.6021 -0.8026  0.1079
10917SOL    HW134171   0.671   6.274   0.456 -2.1966 -1.5979 -1.0418
10917SOL    HW234172   0.569   6.383   0.479 -0.3812 -0.2315  0.8915
10918SOL     OW34173   2.205   1.153   6.452  0.5919 -0.1673  0.3025
10918SOL    HW134174   2.270   1.085   6.434 -0.5643 -1.5368  1.1428
10918SOL    HW234175   2.169   1.131   6.537  0.0030  1.3764  0.4957
10919SOL     OW34176   7.132   7.043   7.789 -0.4577  0.1489 -0.6150
10919SOL    HW134177   7.139   7.135   7.811 -2.1242  0.0347  0.5820
10919SOL    HW234178   7.102   7.042   7.698  0.1860  0.7584 -0.8421
10920SOL     OW34179   5.064   7.550   0.321 -0.1789 -0.2371  0.0841
10920SOL    HW134180   4.989   7.528   0.265  1.0062 -1.1678 -1.2100
10920SOL    HW234181   5.025   7.584   0.401 -1.9926 -1.0535 -0.4062
10921SOL     OW34182   5.224   0.763   7.202  0.4129  0.0207 -0.2252
10921SOL    HW134183   5.164   0.693   7.173 -0.6391  1.5149 -1.9399
10921SOL    HW234184   5.304   0.747   7.152 -0.0058  0.2885 -1.0152
10922SOL     OW34185   0.050   3.853   6.381  0.0178 -0.0456  0.3965
10922SOL    HW134186   0.113   3.782   6.371  0.8873  0.9180 -1.4174
10922SOL    HW234187  -0.025   3.827   6.327  0.6002  0.6590 -0.7912
10923SOL     OW34188   4.840   7.807   2.624 -0.6319  0.1417 -0.2599
10923SOL    HW134189   4.910   7.763   2.576 -2.3259 -0.6092 -2.1813
10923SOL    HW234190   4.821   7.885   2.572 -1.4522  0.1442  0.0257
10924SOL     OW34191   2.833   1.835   3.991 -0.6607  0.4666 -0.2190
10924SOL    HW134192   2.848   1.866   3.902 -2.4094  1.8322 -0.0825
10924SOL    HW234193   2.743   1.803   3.991 -0.1896 -1.0097  0.6940
10925SOL     OW34194   6.304   0.463   7.219 -0.0957 -0.0539 -0.6173
10925SOL    HW134195   6.397   0.444   7.205 -0.0262  0.3754 -0.7370
10925SOL    HW234196   6.270   0.385   7.264  0.6267  0.3522  0.6762
10926SOL     OW34197   1.104   3.864   7.697 -0.2154 -0.1002 -0.7683
10926SOL    HW134198   1.111   3.916   7.617 -0.9457  0.2178 -0.6243
10926SOL    HW234199   1.042   3.911   7.752  2.2912  1.2055  1.1705
10927SOL     OW34200   4.467   3.196   0.086 -0.2180  0.6541  0.6071
10927SOL    HW134201   4.557   3.173   0.108 -0.4361 -0.8071  0.0452
10927SOL    HW234202   4.415   3.123   0.120 -1.1019  1.0496  0.1218
10928SOL     OW34203   5.554   1.831   1.508 -0.4287 -0.5389 -0.2472
10928SOL    HW134204   5.575   1.779   1.431 -1.1602  0.8250 -1.4057
10928SOL    HW234205   5.465   1.807   1.531 -0.0625 -1.2675  0.4743
10929SOL     OW34206   8.019   4.908   1.982  0.0122 -0.0875 -0.6726
10929SOL    HW134207   8.096   4.900   2.038  0.2082  1.3133 -0.7128
10929SOL    HW234208   8.006   4.820   1.947 -0.9372 -1.4129  2.5840
10930SOL     OW34209   5.040   2.801   5.793  0.3691  0.5131 -0.3182
10930SOL    HW134210   5.098   2.858   5.844  1.7457 -1.8098  0.8996
10930SOL    HW234211   5.098   2.732   5.761 -1.3937 -0.8023 -0.7786
10931SOL     OW34212   7.589   4.931   5.996  0.2606  0.5819 -0.3677
10931SOL    HW134213   7.582   4.985   6.074  1.5664  1.1643 -0.6200
10931SOL    HW234214   7.516   4.958   5.941 -1.0472 -0.2796  0.8842
10932SOL     OW34215   7.098   2.984   7.845 -0.2370  0.2870  0.0841
10932SOL    HW134216   7.137   3.010   7.928 -0.7999 -0.2191  0.5163
10932SOL    HW234217   7.004   2.981   7.863 -0.2036 -2.1318  0.1029
10933SOL     OW34218   2.128   3.907   4.823 -0.0866 -0.2087  0.1588
10933SOL    HW134219   2.133   3.825   4.873  1.5882 -1.0764 -1.3054
10933SOL    HW234220   2.056   3.892   4.762 -1.3786  0.4094  1.4580
10934SOL     OW34221   5.115   5.966   3.524  0.4376 -0.3837  0.6049
10934SOL    HW134222   5.176   5.936   3.592  0.6453 -0.0708  0.5592
10934SOL    HW234223   5.134   6.059   3.514 -0.6006 -0.1090  1.1430
10935SOL     OW34224   0.724   6.746   4.923 -0.1530 -0.1674  0.4562
10935SOL    HW134225   0.714   6.841   4.910  0.3247 -0.3179 -1.1453
10935SOL    HW234226   0.818   6.732   4.928 -0.2456 -0.4692  1.5654
10936SOL     OW34227   3.626   5.640   1.240 -0.7101 -0.2802 -0.0978
10936SOL    HW134228   3.546   5.693   1.235 -0.6811 -0.2426 -0.1665
10936SOL    HW234229   3.595   5.550   1.237 -0.7087 -0.2629 -0.7547
10937SOL     OW34230   3.525   4.618   5.511 -0.0507 -0.4437 -0.1417
10937SOL    HW134231   3.520   4.564   5.590  0.5633  0.7075  0.7187
10937SOL    HW234232   3.609   4.596   5.471  0.4819  0.2622  0.5380
10938SOL     OW34233   0.621   1.290   0.870  0.3366 -0.1521 -0.5101
10938SOL    HW134234   0.611   1.303   0.776 -0.0981  0.7637 -0.3481
10938SOL    HW234235   0.711   1.260   0.881  1.1906  2.0487 -1.0105
10939SOL     OW34236   3.867   2.546   5.626 -0.0838 -0.5766 -0.0516
10939SOL    HW134237   3.810   2.472   5.608  0.5450 -1.4533  1.3583
10939SOL    HW234238   3.809   2.616   5.655 -0.5101 -1.2083  0.6313
10940SOL     OW34239   7.014   4.353   6.414  0.7020 -0.7039 -0.1982
10940SOL    HW134240   7.079   4.291   6.447 -0.5515 -0.3418  3.3779
10940SOL    HW234241   6.951   4.362   6.485 -1.8536  0.9821 -2.4729
10941SOL     OW34242   0.917   0.397   1.051 -0.3328  0.1104  0.0682
10941SOL    HW134243   0.855   0.326   1.040 -0.9003  0.5039  0.6547
10941SOL    HW234244   0.901   0.455   0.976 -0.9374  0.4004  0.4168
10942SOL     OW34245   0.166   5.211   4.949  0.2713  0.1958 -0.0129
10942SOL    HW134246   0.095   5.161   4.990  0.7462  1.2362  2.2403
10942SOL    HW234247   0.244   5.157   4.964  0.3692  0.3196 -0.0841
10943SOL     OW34248   1.997   1.797   4.780 -0.2107  0.3471  0.4775
10943SOL    HW134249   2.082   1.799   4.825 -0.0418 -1.1878  0.2923
10943SOL    HW234250   1.938   1.754   4.842 -0.9811  1.7644  0.7648
10944SOL     OW34251   6.161   0.599   3.943  0.3412 -0.1859  0.5369
10944SOL    HW134252   6.078   0.644   3.955  0.3968  0.1054 -0.1740
10944SOL    HW234253   6.213   0.626   4.019 -0.4376 -0.9136  1.3569
10945SOL     OW34254   3.164   2.387   2.093  0.2781  0.0908  0.1536
10945SOL    HW134255   3.153   2.437   2.013 -2.9047  0.0922  0.4565
10945SOL    HW234256   3.191   2.300   2.064 -0.7809  0.1048 -0.9498
10946SOL     OW34257   6.578   2.057   7.316  0.1278 -0.3619 -0.5344
10946SOL    HW134258   6.598   1.965   7.296  1.0091 -0.4912  0.8589
10946SOL    HW234259   6.544   2.092   7.233  1.5120 -1.4562 -1.6229
10947SOL     OW34260   0.832   3.520   5.654  0.5139 -0.0852 -0.0200
10947SOL    HW134261   0.843   3.470   5.574  0.6798  1.5216 -1.0390
10947SOL    HW234262   0.907   3.495   5.708  1.0676 -0.2813 -0.8621
10948SOL     OW34263   3.271   7.919   5.975 -0.4324 -0.7627  0.3455
10948SOL    HW134264   3.202   7.974   5.937  0.0345  0.0451  0.6416
10948SOL    HW234265   3.262   7.932   6.069  1.8582  1.6068  0.3636
10949SOL     OW34266   3.917   1.767   7.733  0.3355 -0.2840  0.0246
10949SOL    HW134267   3.867   1.734   7.808  2.6485 -1.8117  1.0636
10949SOL    HW234268   3.916   1.862   7.742 -2.5143 -0.2326 -0.2019
10950SOL     OW34269   3.510   1.828   3.251  0.2568  0.1024  0.4060
10950SOL    HW134270   3.543   1.859   3.167  1.2603 -2.1436 -0.1065
10950SOL    HW234271   3.431   1.880   3.266 -1.1269 -0.7339 -2.9397
10951SOL     OW34272   1.928   0.989   8.007 -0.3513  0.6323 -0.1210
10951SOL    HW134273   1.962   1.022   7.924  2.2910 -1.0581  0.1455
10951SOL    HW234274   2.005   0.984   8.064 -1.4004 -1.5148  1.2615
10952SOL     OW34275   4.761   7.822   1.476  0.2565  0.4019  0.1743
10952SOL    HW134276   4.795   7.906   1.507  2.2977 -1.5141  3.7366
10952SOL    HW234277   4.666   7.835   1.475  0.5377  3.0923 -0.6978
10953SOL     OW34278   6.786   5.003   7.024 -0.2332  0.3287 -0.1523
10953SOL    HW134279   6.852   5.056   7.068 -1.4988  1.9934 -0.2016
10953SOL    HW234280   6.768   4.932   7.086  1.1359  0.1623  0.1068
10954SOL     OW34281   3.651   6.764   5.719  0.2637  0.2025 -0.5013
10954SOL    HW134282   3.738   6.783   5.684  0.7046 -1.1292 -0.1629
10954SOL    HW234283   3.629   6.842   5.771  1.4670  0.3296 -0.1556
10955SOL     OW34284   2.109   3.408   2.146  0.0634 -0.3070  0.2936
10955SOL    HW134285   2.123   3.492   2.190  1.9403  0.6499 -1.9054
10955SOL    HW234286   2.196   3.367   2.145  0.5329  0.3743 -3.5407
10956SOL     OW34287   6.427   6.303   3.842 -0.4215 -0.1056 -0.3040
10956SOL    HW134288   6.396   6.258   3.763 -2.3405  1.0963 -0.3072
10956SOL    HW234289   6.361   6.371   3.858  1.1143  1.1497  1.0540
10957SOL     OW34290   6.506   6.897   5.768  0.1663 -0.2191  0.0341
10957SOL    HW134291   6.504   6.911   5.863  1.6977 -0.6641  0.1613
10957SOL    HW234292   6.542   6.809   5.758  1.3270  0.3443 -0.9764
10958SOL     OW34293   7.614   6.813   5.382  0.4059  0.3217  0.1770
10958SOL    HW134294   7.698   6.808   5.429  0.1160  1.6427  0.8684
10958SOL    HW234295   7.561   6.873   5.434 -1.2074 -0.9600  0.0949
10959SOL     OW34296   4.396   6.841   6.629 -0.2781 -0.3334  0.2293
10959SOL    HW134297   4.484   6.848   6.592  0.1362 -1.0511  1.0587
10959SOL    HW234298   4.363   6.758   6.597 -0.6796 -0.0321 -0.1352
10960SOL     OW34299   3.359   1.762   0.036  0.1222 -0.0130  0.2690
10960SOL    HW134300   3.273   1.805   0.030  0.2447  0.1970 -0.0047
10960SOL    HW234301   3.348   1.697   0.106  0.4500  1.6289  1.9066
10961SOL     OW34302   7.500   4.494   5.405  0.0209 -0.0275  0.9662
10961SOL    HW134303   7.514   4.544   5.324 -1.3565 -2.4098 -0.9082
10961SOL    HW234304   7.430   4.541   5.450  1.6400  2.0227  1.4698
10962SOL     OW34305   0.979   7.367   5.324 -0.3566 -0.1016  0.2704
10962SOL    HW134306   1.007   7.282   5.289 -0.8012 -0.7249  1.3768
10962SOL    HW234307   0.891   7.380   5.288  0.4306  0.8394 -1.4597
10963SOL     OW34308   5.338   0.245   2.289  0.1353 -0.0366 -0.0333
10963SOL    HW134309   5.281   0.282   2.357  0.2591 -0.1597  0.1393
10963SOL    HW234310   5.423   0.234   2.333  0.0690 -0.6291 -0.0530
10964SOL     OW34311   4.664   3.874   2.933  0.0501 -0.4847 -0.0358
10964SOL    HW134312   4.718   3.808   2.977 -0.7100 -0.0189  1.6999
10964SOL    HW234313   4.574   3.847   2.950 -0.2698  0.4687 -0.1344
10965SOL     OW34314   4.423   5.956   4.713 -0.5498  0.6772 -0.2785
10965SOL    HW134315   4.372   5.902   4.652  0.0171 -0.6441  0.3764
10965SOL    HW234316   4.367   5.964   4.790  0.3094 -1.0965  0.5937
10966SOL     OW34317   4.005   3.240   3.667 -0.1083  0.2689  0.0931
10966SOL    HW134318   4.086   3.192   3.688  1.3890  1.8459 -1.6786
10966SOL    HW234319   3.975   3.274   3.751  1.0966 -0.3434  0.8046
10967SOL     OW34320   5.746   7.753   4.581  0.0489  0.0165 -0.0950
10967SOL    HW134321   5.792   7.724   4.659 -0.7156  0.7004  0.6340
10967SOL    HW234322   5.684   7.819   4.613 -0.6293 -0.0537 -1.2053
10968SOL     OW34323   0.703   7.257   1.829  0.3451 -0.1937 -0.7462
10968SOL    HW134324   0.641   7.256   1.757  0.4137  0.1712 -0.8161
10968SOL    HW234325   0.786   7.283   1.788  0.5666 -0.7808 -0.6731
10969SOL     OW34326   5.617   2.229   0.979  0.2703  0.0962 -0.0084
10969SOL    HW134327   5.544   2.183   1.021  0.1957  0.6367  0.4694
10969SOL    HW234328   5.694   2.204   1.029  0.3608 -0.1879 -0.2871
10970SOL     OW34329   1.363   7.211   0.784  0.1436 -0.3760  0.4618
10970SOL    HW134330   1.336   7.217   0.692 -0.7812 -2.8037  0.5016
10970SOL    HW234331   1.373   7.302   0.812  0.8379  0.4348 -2.1265
10971SOL     OW34332   3.832   4.053   1.241 -0.9716 -0.0804  0.0744
10971SOL    HW134333   3.740   4.027   1.239 -1.2604  0.9223 -0.5895
10971SOL    HW234334   3.829   4.148   1.255 -0.0238 -0.1024  0.4601
10972SOL     OW34335   7.401   2.037   6.204 -0.0261 -0.3106  0.0914
10972SOL    HW134336   7.443   1.990   6.276 -0.1614  0.7244  0.8665
10972SOL    HW234337   7.438   1.998   6.125  1.4799 -0.2438  0.7338
10973SOL     OW34338   6.396   6.471   7.703  0.2093 -0.4953 -0.2174
10973SOL    HW134339   6.343   6.550   7.697  0.7245 -0.1855 -0.7492
10973SOL    HW234340   6.405   6.455   7.797  0.7050  0.4945 -0.0840
10974SOL     OW34341   1.221   7.295   2.875 -0.1549 -0.0912 -0.4961
10974SOL    HW134342   1.249   7.223   2.819  0.8428  0.0974 -0.2637
10974SOL    HW234343   1.298   7.352   2.881 -0.8699  0.9106 -0.5394
10975SOL     OW34344   4.974   6.836   3.610 -0.5722  0.5984  0.1087
10975SOL    HW134345   5.031   6.766   3.578  1.1537  1.1560  1.7957
10975SOL    HW234346   4.972   6.900   3.538 -0.1176 -0.0208 -0.4695
10976SOL     OW34347   4.986   3.625   1.214  0.1697 -0.1551 -0.2031
10976SOL    HW134348   4.901   3.629   1.259  0.8002  0.8676  0.9605
10976SOL    HW234349   5.015   3.534   1.225  0.3101  0.0744  1.5186
10977SOL     OW34350   0.872   1.860   7.638  0.3272 -0.9046 -0.0345
10977SOL    HW134351   0.835   1.900   7.560  2.1153  0.0048 -0.4524
10977SOL    HW234352   0.854   1.766   7.627  1.8593 -0.9948 -2.3055
10978SOL     OW34353   4.324   2.863   5.507 -0.0277  0.5024  0.2184
10978SOL    HW134354   4.377   2.784   5.498 -0.6695  0.1723 -0.7629
10978SOL    HW234355   4.237   2.831   5.529 -0.2342  0.9496  0.0692
10979SOL     OW34356   0.496   2.997   0.709  0.1433  0.9392  0.5555
10979SOL    HW134357   0.488   2.929   0.643 -1.5222 -1.3397  2.9162
10979SOL    HW234358   0.420   3.054   0.694 -0.7933 -0.1482  1.1022
10980SOL     OW34359   6.756   2.598   7.763 -0.7260 -0.0454  0.3538
10980SOL    HW134360   6.831   2.657   7.756 -0.4580 -0.1507  2.0213
10980SOL    HW234361   6.792   2.511   7.745 -0.9546  0.1569 -1.2439
10981SOL     OW34362   4.898   5.710   7.639 -0.0118 -0.1495  0.0706
10981SOL    HW134363   4.875   5.755   7.721  0.1268 -0.8161  0.4859
10981SOL    HW234364   4.977   5.754   7.608 -0.6006  0.7319 -0.2119
10982SOL     OW34365   5.712   3.098   2.417 -0.2541 -0.2337 -0.1369
10982SOL    HW134366   5.672   3.098   2.330 -1.8501  0.4686  0.5453
10982SOL    HW234367   5.738   3.189   2.432  1.0242 -0.5574 -0.2947
10983SOL     OW34368   1.554   1.737   3.871 -0.1656  0.0204 -0.6360
10983SOL    HW134369   1.647   1.734   3.895 -0.5058 -0.3250  0.7015
10983SOL    HW234370   1.508   1.702   3.947 -1.4289  0.5167 -1.1437
10984SOL     OW34371   7.432   5.599   5.542 -0.2453  0.3645 -0.1034
10984SOL    HW134372   7.451   5.652   5.620 -0.9925  0.1454  0.2427
10984SOL    HW234373   7.363   5.539   5.571  0.3873 -0.6149 -0.5667
10985SOL     OW34374   6.873   6.541   0.619  0.4368 -0.2028 -0.0435
10985SOL    HW134375   6.817   6.545   0.697  1.0096  0.4741  0.3435
10985SOL    HW234376   6.961   6.557   0.651  0.5276  1.4248 -0.9753
10986SOL     OW34377   6.971   2.920   4.671 -0.0002 -0.4117 -0.5414
10986SOL    HW134378   6.941   2.970   4.747 -0.8593 -1.7802  0.0706
10986SOL    HW234379   6.893   2.875   4.640  0.5187 -0.5158 -1.7494
10987SOL     OW34380   4.412   0.732   0.108 -0.0028 -0.3735  0.6804
10987SOL    HW134381   4.388   0.695   0.193  1.3069 -0.6923  0.9179
10987SOL    HW234382   4.376   0.671   0.044  0.7705 -1.2247  1.0471
10988SOL     OW34383   2.618   8.057   2.699  0.2304 -0.0511  0.1705
10988SOL    HW134384   2.622   8.153   2.703 -0.4537  0.0407 -0.9855
10988SOL    HW234385   2.708   8.029   2.712  0.4635  0.7528  0.3714
10989SOL     OW34386   3.829   0.479   2.903 -0.1370 -0.0538 -0.4730
10989SOL    HW134387   3.768   0.412   2.935 -0.1528 -0.7228 -1.8488
10989SOL    HW234388   3.805   0.492   2.812  1.0697  0.4834 -0.7344
10990SOL     OW34389   5.160   0.395   3.253 -0.4366 -0.0068 -0.0549
10990SOL    HW134390   5.067   0.374   3.242 -0.9163  1.3326  1.0439
10990SOL    HW234391   5.194   0.325   3.309 -0.9294 -0.1893  0.0195
10991SOL     OW34392   3.104   1.319   3.748  0.6071 -0.6422  0.0059
10991SOL    HW134393   3.107   1.318   3.843 -1.5829 -1.7257  0.1225
10991SOL    HW234394   3.186   1.276   3.721  1.1855 -0.4323  1.3737
10992SOL     OW34395   5.272   4.091   3.276  0.1552  0.1293  0.0230
10992SOL    HW134396   5.237   4.159   3.219 -0.0550 -0.8778 -1.0934
10992SOL    HW234397   5.210   4.086   3.349 -0.9007 -0.1794 -0.8705
10993SOL     OW34398   1.307   0.810   1.037 -0.2225 -0.4567 -0.1605
10993SOL    HW134399   1.354   0.752   1.096  0.1252  1.4592  1.5654
10993SOL    HW234400   1.376   0.849   0.983 -0.2769 -0.5216 -0.2761
10994SOL     OW34401   2.284   0.238   2.355 -0.0671 -0.1201 -0.8118
10994SOL    HW134402   2.227   0.225   2.280  0.6325  1.2333 -1.6124
10994SOL    HW234403   2.344   0.308   2.328 -0.2836  0.9544  1.2636
10995SOL     OW34404   7.185   1.217   5.342 -0.1852 -0.2798 -0.2981
10995SOL    HW134405   7.133   1.272   5.402 -0.5360 -1.4248  0.4796
10995SOL    HW234406   7.276   1.235   5.366 -0.1586  1.6699 -1.6073
10996SOL     OW34407   1.562   3.376   2.014  0.0150  0.1799 -0.9348
10996SOL    HW134408   1.651   3.406   2.032  0.6739 -1.5267 -1.1928
10996SOL    HW234409   1.516   3.454   1.982  1.3871  1.0980 -0.7332
10997SOL     OW34410   7.033   1.083   6.158  0.2376 -0.3556  0.6718
10997SOL    HW134411   7.106   1.050   6.107 -0.0782 -0.3167  0.1891
10997SOL    HW234412   6.970   1.011   6.160  0.5055 -0.5777  1.5297
10998SOL     OW34413   3.937   2.233   6.160 -0.7953 -0.6130  0.7454
10998SOL    HW134414   3.898   2.207   6.244  0.0688 -0.3607  1.2343
10998SOL    HW234415   4.029   2.211   6.169 -0.3393  1.0371  0.5488
10999SOL     OW34416   1.044   5.043   0.567 -0.3465  0.0207 -0.2344
10999SOL    HW134417   0.974   5.045   0.501  0.4339  0.2700 -1.0824
10999SOL    HW234418   1.107   4.979   0.533 -1.1658 -1.8766  1.6130
11000SOL     OW34419   0.384   0.239   6.629  0.5933 -0.0681  0.6310
11000SOL    HW134420   0.462   0.252   6.683  0.9457  0.7105 -0.0300
11000SOL    HW234421   0.416   0.244   6.539 -0.3839  1.5187  0.3306
11001SOL     OW34422   4.334   6.668   4.403 -0.1387  0.4814  0.3444
11001SOL    HW134423   4.427   6.686   4.414  0.2086  0.3091 -1.8949
11001SOL    HW234424   4.304   6.730   4.336 -1.4170 -0.0912  0.3420
11002SOL     OW34425   0.313   5.252   0.209 -0.3521  0.2956  0.2021
11002SOL    HW134426   0.255   5.293   0.145 -0.8836  0.0065  0.4921
11002SOL    HW234427   0.255   5.200   0.265  0.4245 -2.1487 -1.1113
11003SOL     OW34428   4.626   7.056   2.222 -0.9398  0.0900 -0.0363
11003SOL    HW134429   4.680   7.060   2.144 -2.9301  1.1023 -1.4391
11003SOL    HW234430   4.566   7.130   2.214 -1.3257  0.1130  2.3754
11004SOL     OW34431   0.069   6.299   0.248  0.0902  0.1640 -0.7309
11004SOL    HW134432   0.020   6.315   0.329 -1.0198 -0.8021 -1.1807
11004SOL    HW234433   0.153   6.343   0.262 -0.5524  1.0848  0.4343
11005SOL     OW34434   4.431   1.185   0.756  0.2718  0.7917  0.3383
11005SOL    HW134435   4.356   1.224   0.711  1.0961  1.4518 -0.5113
11005SOL    HW234436   4.393   1.116   0.811 -1.0005  1.4340  0.3058
11006SOL     OW34437   2.294   4.960   7.894 -0.1259 -0.1027  0.1227
11006SOL    HW134438   2.296   4.866   7.915 -0.2898 -0.2898 -0.6730
11006SOL    HW234439   2.239   4.998   7.963 -2.2138 -0.9858 -0.9461
11007SOL     OW34440   3.752   1.938   5.811 -0.1711  0.0656 -0.0377
11007SOL    HW134441   3.786   2.014   5.858 -2.6399  0.8963  0.5069
11007SOL    HW234442   3.659   1.955   5.800 -1.0063 -3.2252  0.8277
11008SOL     OW34443   7.979   3.565   5.547 -0.0749 -0.0693  0.3421
11008SOL    HW134444   7.919   3.639   5.554 -1.4150 -1.1283  0.3454
11008SOL    HW234445   7.990   3.534   5.637 -0.1359 -0.3516  0.2531
11009SOL     OW34446   6.146   6.117   7.094 -0.1393 -0.1205 -0.4963
11009SOL    HW134447   6.090   6.056   7.142  0.5307 -0.5942 -0.2974
11009SOL    HW234448   6.226   6.122   7.145  0.9632 -1.3520 -1.9801
11010SOL     OW34449   1.490   7.895   4.254  0.5959  0.2884 -0.0572
11010SOL    HW134450   1.549   7.848   4.313 -0.7074 -0.2361  0.8575
11010SOL    HW234451   1.526   7.984   4.251  1.5454 -0.0684  0.3099
11011SOL     OW34452   3.132   2.532   1.837 -0.4830 -0.2480  0.0786
11011SOL    HW134453   3.077   2.602   1.872 -2.0998 -1.2939 -0.2535
11011SOL    HW234454   3.145   2.556   1.745  0.5069  0.5318  0.4145
11012SOL     OW34455   2.021   7.362   2.136  0.2065 -0.3150  0.0847
11012SOL    HW134456   2.035   7.451   2.104  0.7746  0.2529  1.7985
11012SOL    HW234457   2.108   7.328   2.154 -0.0673 -0.6299  0.9107
11013SOL     OW34458   2.226   5.858   6.399 -0.1895 -0.1629  0.3707
11013SOL    HW134459   2.312   5.874   6.360  0.4384  0.3657  1.9106
11013SOL    HW234460   2.189   5.945   6.412 -1.4550 -0.4115 -1.2673
11014SOL     OW34461   0.979   2.430   7.210  0.6226  0.2878 -0.2266
11014SOL    HW134462   0.956   2.337   7.215  0.1456  0.2754 -1.8960
11014SOL    HW234463   0.914   2.473   7.266 -0.5707 -0.2033 -1.1796
11015SOL     OW34464   0.719   6.081   6.152  0.2903  0.0778  0.3101
11015SOL    HW134465   0.640   6.132   6.133 -1.0975 -1.8408  0.6451
11015SOL    HW234466   0.728   6.085   6.247 -0.9176 -1.7444  0.5465
11016SOL     OW34467   0.031   6.318   4.735  0.7069  0.7430 -0.0474
11016SOL    HW134468   0.078   6.318   4.819  2.0034  0.5736 -0.7368
11016SOL    HW234469  -0.020   6.237   4.735  0.8211  0.6697  0.5115
11017SOL     OW34470   2.796   3.818   7.638  0.9235 -0.7024 -0.1267
11017SOL    HW134471   2.776   3.725   7.633  3.3274 -1.3990  1.3484
11017SOL    HW234472   2.866   3.824   7.703  0.0945  2.2843  0.6655
11018SOL     OW34473   1.112   2.970   7.512 -0.0588  0.1416 -0.2385
11018SOL    HW134474   1.137   2.934   7.597  0.0720  1.7571  0.4289
11018SOL    HW234475   1.048   2.907   7.478  0.7263 -1.1159  0.5195
11019SOL     OW34476   1.862   0.525   5.593 -0.2821 -0.0316  0.1422
11019SOL    HW134477   1.877   0.570   5.510 -0.4237 -0.6105 -0.2030
11019SOL    HW234478   1.885   0.590   5.659  0.0693  0.3588 -0.3482
11020SOL     OW34479   4.621   6.644   5.842  0.2210 -0.3075  0.2257
11020SOL    HW134480   4.537   6.681   5.817 -1.0653 -1.0016  3.0596
11020SOL    HW234481   4.611   6.550   5.829  1.3355 -0.2392 -1.3402
11021SOL     OW34482   0.321   7.133   5.372 -0.1637  0.1046  0.2019
11021SOL    HW134483   0.318   7.045   5.410 -0.0737 -0.1433 -0.3653
11021SOL    HW234484   0.276   7.188   5.437  0.2562 -0.2593  0.8122
11022SOL     OW34485   4.668   1.979   5.690  0.4465 -0.0341  0.3190
11022SOL    HW134486   4.659   1.970   5.785 -2.0292 -1.0177  0.0553
11022SOL    HW234487   4.623   2.061   5.670 -0.6868 -0.7647 -0.1819
11023SOL     OW34488   2.115   7.648   0.447 -0.1967  0.2315 -0.8451
11023SOL    HW134489   2.195   7.606   0.415  0.3436  0.4107  0.2343
11023SOL    HW234490   2.110   7.730   0.398  0.2521  0.1883 -0.9686
11024SOL     OW34491   4.159   5.118   0.352  0.0642 -0.5270  0.8392
11024SOL    HW134492   4.143   5.070   0.270 -0.9443 -0.2035  0.8385
11024SOL    HW234493   4.232   5.070   0.393  0.3375 -0.9132 -0.0621
11025SOL     OW34494   1.870   0.914   4.523  0.1882  0.2486 -0.1045
11025SOL    HW134495   1.831   0.947   4.604  1.6166  2.6164 -0.3252
11025SOL    HW234496   1.857   0.984   4.460  0.7740 -0.7994 -1.4278
11026SOL     OW34497   2.343   0.914   3.906 -0.2579 -0.4978  0.1489
11026SOL    HW134498   2.340   0.917   3.810  0.3115 -2.5185  0.0287
11026SOL    HW234499   2.421   0.966   3.929  2.2604 -3.5440 -0.8213
11027SOL     OW34500   6.866   7.187   4.419  0.6041 -0.2043 -0.0299
11027SOL    HW134501   6.857   7.115   4.482  2.7677 -0.0213  0.5566
11027SOL    HW234502   6.776   7.213   4.400 -0.1747 -1.8239  1.1851
11028SOL     OW34503   5.486   5.737   5.166 -0.2352  0.1867 -0.3288
11028SOL    HW134504   5.518   5.667   5.110  1.0002 -1.7037  2.4702
11028SOL    HW234505   5.403   5.705   5.200  0.2868  0.0526  0.8893
11029SOL     OW34506   7.873   7.717   1.697  0.3259 -0.9281 -0.2773
11029SOL    HW134507   7.858   7.796   1.749 -0.5823 -0.3221 -1.4254
11029SOL    HW234508   7.919   7.658   1.757  0.9629  0.4251  0.6235
11030SOL     OW34509   2.003   5.094   0.931 -0.2258 -0.4131  0.0761
11030SOL    HW134510   2.071   5.029   0.946 -0.4997 -0.8819 -0.6924
11030SOL    HW234511   2.050   5.169   0.894 -0.0605 -0.5442  0.0185
11031SOL     OW34512   2.645   6.726   0.610 -0.3424  0.5788 -0.2671
11031SOL    HW134513   2.739   6.707   0.621 -0.4997  1.2088  3.5449
11031SOL    HW234514   2.643   6.795   0.543  2.0600  1.2931  0.2669
11032SOL     OW34515   4.032   4.056   0.097 -0.7259  0.1638  0.2773
11032SOL    HW134516   4.089   3.981   0.112 -0.7626 -0.2057 -1.3189
11032SOL    HW234517   4.071   4.102   0.023 -1.5738  0.8465  0.2350
11033SOL     OW34518   7.324   3.828   2.855 -1.1594 -0.8857 -0.3855
11033SOL    HW134519   7.276   3.779   2.788 -0.5194 -2.1448  0.0372
11033SOL    HW234520   7.351   3.761   2.918  1.5934 -0.3444 -0.8823
11034SOL     OW34521   5.676   2.969   1.550  0.3102  0.0949  0.5363
11034SOL    HW134522   5.606   2.937   1.492 -0.0921  0.1886  0.9645
11034SOL    HW234523   5.718   3.039   1.500  0.2642 -0.1281  0.1759
11035SOL     OW34524   5.359   5.371   7.224  0.0358  0.0614  0.2759
11035SOL    HW134525   5.453   5.389   7.219 -0.1953  1.3607  0.2264
11035SOL    HW234526   5.353   5.284   7.264  1.2549 -0.1223  0.1017
11036SOL     OW34527   4.410   0.258   1.827  0.7576  0.3403 -0.4004
11036SOL    HW134528   4.416   0.162   1.822  0.7200  0.3932 -2.1673
11036SOL    HW234529   4.316   0.276   1.819  0.8901  0.5598 -1.6694
11037SOL     OW34530   5.634   7.331   7.528 -0.4729  0.0111 -0.1005
11037SOL    HW134531   5.551   7.294   7.497 -0.4641 -1.3497  1.3702
11037SOL    HW234532   5.694   7.323   7.454 -1.3698  0.0895 -0.8529
11038SOL     OW34533   1.318   0.467   6.823  0.6146  0.0612  0.3468
11038SOL    HW134534   1.291   0.555   6.797  1.2528  1.2098  3.1605
11038SOL    HW234535   1.256   0.442   6.892  0.7377 -1.5361 -0.0746
11039SOL     OW34536   1.281   3.143   6.847 -0.2968 -0.2219 -0.0117
11039SOL    HW134537   1.266   3.174   6.937  0.9643  1.9533 -0.4837
11039SOL    HW234538   1.227   3.065   6.840 -0.9593 -0.0778  2.4295
11040SOL     OW34539   0.634   6.282   2.712 -0.3593  0.1864 -0.0525
11040SOL    HW134540   0.641   6.375   2.736  0.2220 -0.1156  1.0461
11040SOL    HW234541   0.682   6.275   2.630  0.3208  0.7174  0.2854
11041SOL     OW34542   5.008   5.789   6.803  0.1196 -0.5525 -0.2492
11041SOL    HW134543   5.026   5.829   6.888 -0.4304 -0.5098 -0.1466
11041SOL    HW234544   5.003   5.864   6.743  0.9472 -0.6125 -0.4114
11042SOL     OW34545   1.649   2.355   4.046  0.0475  0.4328  0.1743
11042SOL    HW134546   1.575   2.353   4.106 -0.3306  0.8000 -0.2748
11042SOL    HW234547   1.694   2.271   4.060 -0.3772  0.2665  0.5392
11043SOL     OW34548   6.002   4.133   0.447  0.6164 -0.3834  0.3508
11043SOL    HW134549   5.988   4.109   0.356  1.6301  1.7656 -0.4271
11043SOL    HW234550   6.086   4.179   0.448 -0.5332  1.8775  1.8940
11044SOL     OW34551   4.870   8.034   5.964  0.0407  0.0996 -0.3721
11044SOL    HW134552   4.827   8.105   5.917  0.2300 -0.3702 -1.2717
11044SOL    HW234553   4.800   7.991   6.013 -0.2042  0.4282 -0.4293
11045SOL     OW34554   1.651   4.000   5.961 -0.1891  0.1677  0.0424
11045SOL    HW134555   1.708   4.036   5.893  0.5342 -2.2118 -0.6869
11045SOL    HW234556   1.670   4.054   6.038  1.0890  1.1094 -0.8835
11046SOL     OW34557   5.196   4.337   0.314  0.0432  0.7939 -0.2293
11046SOL    HW134558   5.277   4.368   0.274  0.2133  0.0085 -0.5052
11046SOL    HW234559   5.216   4.335   0.408 -0.1142  1.9209 -0.1610
11047SOL     OW34560   5.592   7.890   4.168 -0.4330  0.2672  0.0692
11047SOL    HW134561   5.637   7.809   4.189  1.4004  0.7588 -1.6250
11047SOL    HW234562   5.581   7.888   4.073 -1.2605  1.5484  0.1068
11048SOL     OW34563   1.241   6.679   3.951  0.7475  0.2135 -0.5666
11048SOL    HW134564   1.248   6.651   4.042 -0.2721  0.1307 -0.4960
11048SOL    HW234565   1.187   6.611   3.910  1.8045 -0.1316 -1.4101
11049SOL     OW34566   6.971   1.542   5.871 -0.4774 -0.6529  0.1488
11049SOL    HW134567   6.942   1.580   5.954 -0.2622 -1.3632  0.5614
11049SOL    HW234568   6.892   1.536   5.818 -0.3029  1.7170 -0.5128
11050SOL     OW34569   6.781   7.871   6.978 -0.0157 -0.4247  0.1209
11050SOL    HW134570   6.860   7.841   7.022  0.7187 -1.8842 -2.0285
11050SOL    HW234571   6.718   7.801   6.991  0.1509 -0.7915 -0.9304
11051SOL     OW34572   1.649   1.322   1.273 -0.7871  0.1387  0.0348
11051SOL    HW134573   1.627   1.336   1.365  2.2825 -1.4532  1.1547
11051SOL    HW234574   1.632   1.229   1.258  0.0490  0.0746 -0.5717
11052SOL     OW34575   2.438   3.748   0.454  0.0605 -0.2709 -0.0378
11052SOL    HW134576   2.363   3.750   0.513 -0.0930  1.1407 -0.2537
11052SOL    HW234577   2.480   3.833   0.466  1.0521 -0.6597 -0.6599
11053SOL     OW34578   5.468   2.794   3.976 -0.0511  0.2086 -0.5471
11053SOL    HW134579   5.465   2.745   3.895 -0.2633 -0.8222  0.0706
11053SOL    HW234580   5.549   2.845   3.971  0.5452 -0.7584 -0.8781
11054SOL     OW34581   3.185   0.929   6.857  0.6655  0.0013 -0.3266
11054SOL    HW134582   3.143   0.844   6.848  0.3595  0.0462  0.5531
11054SOL    HW234583   3.112   0.991   6.864  0.8452  0.0376  1.6315
11055SOL     OW34584   1.596   1.705   6.554 -0.4433  0.0993  0.2018
11055SOL    HW134585   1.616   1.637   6.490 -0.5588  0.2217  0.0329
11055SOL    HW234586   1.624   1.786   6.512  0.1613  0.1084  0.6041
11056SOL     OW34587   5.684   4.246   0.056  0.6970 -0.5169 -0.8857
11056SOL    HW134588   5.751   4.309   0.029  1.0046 -0.9960 -1.2634
11056SOL    HW234589   5.691   4.175  -0.008  0.9829 -1.3681  0.0620
11057SOL     OW34590   0.181   7.780   5.048 -0.3953 -0.0394  0.1818
11057SOL    HW134591   0.134   7.762   4.967  0.2529  1.7127 -0.6389
11057SOL    HW234592   0.115   7.818   5.106 -0.3366  1.1443 -0.4846
11058SOL     OW34593   7.053   7.758   6.207 -0.8188  0.2109 -0.2702
11058SOL    HW134594   7.098   7.776   6.290 -0.5371  1.5570 -0.6912
11058SOL    HW234595   6.966   7.729   6.232 -0.5374  0.0271  0.5131
11059SOL     OW34596   4.380   7.595   6.403 -0.3672 -0.6876  0.5563
11059SOL    HW134597   4.403   7.683   6.434 -1.9114 -0.3312  0.7739
11059SOL    HW234598   4.451   7.572   6.344 -1.1353  1.7837 -1.5443
11060SOL     OW34599   0.231   3.366   4.314 -0.0165 -0.5580 -0.5568
11060SOL    HW134600   0.155   3.308   4.311  0.2717 -0.9465 -0.5618
11060SOL    HW234601   0.196   3.451   4.338 -0.5004 -0.6506 -0.9124
11061SOL     OW34602   7.185   3.362   6.700  0.3607  0.3193 -0.4115
11061SOL    HW134603   7.135   3.327   6.626 -1.1271  2.1158 -0.3228
11061SOL    HW234604   7.123   3.361   6.773  0.7556  1.6837 -0.0402
11062SOL     OW34605   6.626   7.337   0.353  0.1984 -0.5211 -0.5445
11062SOL    HW134606   6.669   7.370   0.274 -0.0210 -2.3022 -1.4609
11062SOL    HW234607   6.682   7.266   0.384 -0.0431 -0.2539  0.5545
11063SOL     OW34608   2.628   2.376   7.282 -0.2518 -0.0057  0.5085
11063SOL    HW134609   2.592   2.305   7.229  1.3906 -0.5565  0.0643
11063SOL    HW234610   2.639   2.449   7.220  0.0737 -0.0841  0.4731
11064SOL     OW34611   1.402   1.726   6.968 -0.2568  0.1434  0.3447
11064SOL    HW134612   1.366   1.638   6.969 -0.4860  0.2422  0.8401
11064SOL    HW234613   1.485   1.718   6.921 -0.9561 -0.0740 -0.8872
11065SOL     OW34614   4.248   5.351   1.858  0.0791 -0.2032  0.2635
11065SOL    HW134615   4.284   5.293   1.791  0.5622  0.6889 -0.2665
11065SOL    HW234616   4.185   5.406   1.811  1.2611  1.2125  0.2664
11066SOL     OW34617   3.991   3.770   1.637  0.1914 -0.2580  0.3262
11066SOL    HW134618   3.986   3.822   1.557  0.8484  1.4005  1.3137
11066SOL    HW234619   4.054   3.700   1.616  1.4451  0.9667 -0.2074
11067SOL     OW34620   2.097   0.183   2.939  0.6386  0.0587 -0.3230
11067SOL    HW134621   2.159   0.251   2.911 -0.3581  0.7668 -0.9025
11067SOL    HW234622   2.141   0.101   2.919  0.9245  0.5435 -1.8582
11068SOL     OW34623   0.181   1.333   4.401 -0.5217  0.5429  0.2183
11068SOL    HW134624   0.255   1.338   4.341  0.0995  2.2939  1.0590
11068SOL    HW234625   0.136   1.252   4.378 -0.6491  1.4031 -2.9760
11069SOL     OW34626   3.157   5.106   4.067  0.6147  0.2627  0.4073
11069SOL    HW134627   3.191   5.068   3.987  0.5306 -1.5046  1.1504
11069SOL    HW234628   3.215   5.179   4.087  0.1032  1.3009 -1.6949
11070SOL     OW34629   5.800   7.609   6.044 -0.1874 -0.0898  0.3030
11070SOL    HW134630   5.758   7.679   6.095  1.1798  0.2956  0.9366
11070SOL    HW234631   5.774   7.627   5.954  1.3625  2.2104  0.2302
11071SOL     OW34632   2.029   2.399   5.902 -0.6314 -0.1665  0.0643
11071SOL    HW134633   2.086   2.455   5.850 -2.3617  1.7930  0.1216
11071SOL    HW234634   1.978   2.349   5.838 -1.0085  0.3999 -0.0890
11072SOL     OW34635   2.747   7.425   5.112  0.4993  0.0987  0.3117
11072SOL    HW134636   2.687   7.486   5.069 -0.3096 -0.3631  0.7690
11072SOL    HW234637   2.690   7.359   5.153  1.2670  0.2407  1.6568
11073SOL     OW34638   3.328   0.437   3.422 -0.4828  0.4227  0.1507
11073SOL    HW134639   3.266   0.364   3.413  0.2277 -0.0970 -0.6706
11073SOL    HW234640   3.414   0.396   3.421 -0.0920  0.9718  2.9760
11074SOL     OW34641   1.790   4.159   5.068 -0.3547  0.4511  0.7054
11074SOL    HW134642   1.795   4.120   4.981  0.7706 -1.4664  1.5420
11074SOL    HW234643   1.779   4.083   5.127 -2.1097  1.7514  2.1700
11075SOL     OW34644   7.535   4.249   3.239 -0.2061  0.6681 -0.1328
11075SOL    HW134645   7.529   4.216   3.149 -0.2486 -0.2590  0.1998
11075SOL    HW234646   7.445   4.269   3.264 -0.1458  1.3206 -0.4412
11076SOL     OW34647   3.082   3.663   0.396  0.0251 -0.4824  0.7465
11076SOL    HW134648   3.082   3.569   0.415 -1.5793 -0.2223  2.2100
11076SOL    HW234649   3.019   3.672   0.324  1.5151 -0.6934 -0.6574
11077SOL     OW34650   1.877   5.549   7.127 -0.5519  0.0898  0.3173
11077SOL    HW134651   1.788   5.546   7.091 -0.1376 -1.7927 -0.7070
11077SOL    HW234652   1.874   5.490   7.202 -0.2520  0.3126  0.5054
11078SOL     OW34653   0.773   7.105   4.017 -0.1521 -0.2058  0.0643
11078SOL    HW134654   0.779   7.111   3.922 -0.5982 -1.1335 -0.0333
11078SOL    HW234655   0.683   7.130   4.037 -0.9146 -2.6191 -0.0290
11079SOL     OW34656   7.967   6.806   0.351 -0.0649 -0.8518 -0.2175
11079SOL    HW134657   8.026   6.776   0.281 -0.0166 -0.0958 -0.5172
11079SOL    HW234658   7.880   6.806   0.310  0.0668  0.3574 -0.5558
11080SOL     OW34659   5.954   3.683   1.708 -0.4254  0.3282  0.3490
11080SOL    HW134660   5.998   3.649   1.786 -1.5459 -2.1660 -0.0186
11080SOL    HW234661   5.904   3.759   1.740 -0.0673 -0.0301  1.8343
11081SOL     OW34662   0.450   3.073   1.845  0.9864 -0.3764  0.3740
11081SOL    HW134663   0.366   3.047   1.807  0.7931 -0.3099  0.7439
11081SOL    HW234664   0.512   3.069   1.773  0.4135  0.8281 -0.2035
11082SOL     OW34665   4.222   1.269   2.380 -0.2229  0.0393 -0.9177
11082SOL    HW134666   4.202   1.193   2.436  2.0155  0.4997  0.6309
11082SOL    HW234667   4.178   1.342   2.424  0.3423  0.1609 -0.5439
11083SOL     OW34668   5.463   0.402   6.075  0.0035 -0.0989  0.5057
11083SOL    HW134669   5.543   0.367   6.036  0.0392 -1.7179  1.8971
11083SOL    HW234670   5.408   0.428   6.001  1.6428  0.7113 -0.4792
11084SOL     OW34671   5.125   2.575   7.653 -0.3952 -0.0902 -0.1902
11084SOL    HW134672   5.036   2.545   7.672 -0.4215  0.7786  1.1977
11084SOL    HW234673   5.162   2.506   7.598 -1.6521 -0.8546 -0.1203
11085SOL     OW34674   1.109   1.583   2.990 -0.3174 -0.6734  0.0966
11085SOL    HW134675   1.122   1.648   3.058 -1.3695 -0.8605  0.4874
11085SOL    HW234676   1.014   1.577   2.978 -0.3391 -2.8711  0.8255
11086SOL     OW34677   3.040   7.967   0.019 -0.2626  0.4292 -0.2152
11086SOL    HW134678   3.070   7.979  -0.071 -1.2495 -0.4788 -0.6787
11086SOL    HW234679   2.950   7.999   0.019 -0.3406  0.2304  0.4030
11087SOL     OW34680   3.413   7.702   1.283 -0.2259  0.3006  0.1608
11087SOL    HW134681   3.428   7.642   1.356 -1.6471  0.2610  0.4482
11087SOL    HW234682   3.391   7.644   1.209 -0.1501  0.4076  0.0532
11088SOL     OW34683   6.209   7.771   0.014 -0.0491 -0.4477 -0.1389
11088SOL    HW134684   6.160   7.853   0.020 -0.0100 -0.4771  0.8111
11088SOL    HW234685   6.227   7.748   0.106  1.0149 -0.8714 -0.4426
11089SOL     OW34686   6.015   5.316   8.049 -0.2788 -0.1411  0.2499
11089SOL    HW134687   6.037   5.340   7.958 -1.2193  0.4551  0.1669
11089SOL    HW234688   6.099   5.312   8.093  0.1744 -0.1638 -0.5900
11090SOL     OW34689   7.806   4.090   4.491  0.4218 -0.5520 -0.4408
11090SOL    HW134690   7.735   4.062   4.550  0.5665  0.2647  0.1358
11090SOL    HW234691   7.798   4.033   4.415 -0.3805 -0.9782 -0.0457
11091SOL     OW34692   4.449   3.737   3.539 -0.0393  0.2656  0.6774
11091SOL    HW134693   4.403   3.713   3.458 -0.0363  0.2417  0.6829
11091SOL    HW234694   4.540   3.747   3.512 -0.2147  1.3855  0.4455
11092SOL     OW34695   1.422   4.203   3.354  0.3433 -0.3901 -0.5885
11092SOL    HW134696   1.374   4.177   3.432  0.7959  0.9138  0.1440
11092SOL    HW234697   1.465   4.122   3.324 -2.0407 -1.5653 -1.1450
11093SOL     OW34698   5.344   7.482   5.318 -0.1972  1.0189 -0.0563
11093SOL    HW134699   5.360   7.457   5.227  2.0271 -0.3250  0.6204
11093SOL    HW234700   5.271   7.428   5.346 -1.3207  1.8927 -1.1661
11094SOL     OW34701   0.755   3.664   6.735 -0.6856 -0.3974  0.1917
11094SOL    HW134702   0.759   3.759   6.751  1.0983 -0.5077  0.6615
11094SOL    HW234703   0.828   3.629   6.786 -0.8343 -1.9346 -0.6137
11095SOL     OW34704   2.353   4.501   4.968 -0.4364 -0.0140  0.6205
11095SOL    HW134705   2.273   4.504   5.020 -1.1430 -1.1601 -0.3698
11095SOL    HW234706   2.414   4.450   5.022 -1.0597 -0.9307  0.4799
11096SOL     OW34707   8.038   7.331   7.848 -0.5307  0.5015 -0.2264
11096SOL    HW134708   8.024   7.239   7.869  1.0602  0.5071  1.0632
11096SOL    HW234709   8.133   7.340   7.840 -0.7366  1.7897 -1.5618
11097SOL     OW34710   1.490   5.902   7.177 -0.1215  0.0523 -0.0412
11097SOL    HW134711   1.522   5.821   7.219 -0.1620 -0.3418 -0.7583
11097SOL    HW234712   1.454   5.873   7.093 -1.2519  0.6627  0.2184
11098SOL     OW34713   6.888   1.980   7.084 -0.5451  0.3578  0.2194
11098SOL    HW134714   6.967   1.926   7.075  0.4619  1.2739  2.7087
11098SOL    HW234715   6.839   1.938   7.155 -0.2428  2.0661  1.4920
11099SOL     OW34716   4.510   4.099   3.858  0.3761  0.2879 -0.0911
11099SOL    HW134717   4.537   4.032   3.921  2.1881  1.3415  0.2959
11099SOL    HW234718   4.517   4.181   3.906  0.6210  1.0031 -1.3208
11100SOL     OW34719   0.540   0.398   3.348 -0.1452  0.1178  0.2359
11100SOL    HW134720   0.501   0.477   3.385 -0.6595 -0.2125  0.4140
11100SOL    HW234721   0.611   0.430   3.293  0.2524  0.6567  1.0397
11101SOL     OW34722   1.486   2.101   3.255 -0.2560  0.5005  0.4932
11101SOL    HW134723   1.422   2.101   3.326 -1.2412  2.3887 -0.3298
11101SOL    HW234724   1.435   2.085   3.176  0.6791 -0.4947  0.0612
11102SOL     OW34725   2.307   2.013   7.960 -0.4399  0.0293 -0.1227
11102SOL    HW134726   2.297   1.920   7.943 -1.1897 -0.2695  1.7597
11102SOL    HW234727   2.218   2.049   7.951 -0.9392 -0.1832  3.0092
11103SOL     OW34728   1.816   2.748   2.724  0.4028 -0.0781 -0.4548
11103SOL    HW134729   1.738   2.773   2.675  0.3974 -0.2677 -0.5443
11103SOL    HW234730   1.818   2.652   2.720 -0.3582 -0.1921  1.0999
11104SOL     OW34731   0.745   5.752   7.566  0.2856 -0.5745 -0.0784
11104SOL    HW134732   0.729   5.717   7.478  2.6529  0.1345 -0.8621
11104SOL    HW234733   0.797   5.685   7.610 -0.0219 -0.4792  0.4436
11105SOL     OW34734   3.340   1.923   6.273  0.4237 -0.1577 -0.1297
11105SOL    HW134735   3.294   1.986   6.328  0.3814 -2.2988  2.4782
11105SOL    HW234736   3.273   1.893   6.211 -0.4480  0.0201  0.7070
11106SOL     OW34737   7.694   4.830   5.283 -0.1738  0.6940  0.3322
11106SOL    HW134738   7.691   4.897   5.214 -1.9519 -0.6176 -0.9661
11106SOL    HW234739   7.605   4.795   5.286  0.7661 -1.8429  0.7090
11107SOL     OW34740   6.681   1.657   4.418  0.0868 -0.0520 -0.2570
11107SOL    HW134741   6.588   1.654   4.442 -0.0630 -1.6806 -0.9263
11107SOL    HW234742   6.689   1.739   4.368 -1.1767 -0.2941 -0.9070
11108SOL     OW34743   3.557   0.396   0.125  0.1847 -0.0836  0.2251
11108SOL    HW134744   3.553   0.491   0.120  1.6580 -0.0517 -0.6821
11108SOL    HW234745   3.481   0.366   0.075  0.2588  0.6038 -0.2984
11109SOL     OW34746   5.658   5.265   7.149 -0.4707  0.3701  0.6646
11109SOL    HW134747   5.665   5.296   7.239  2.2816  1.6363  0.1565
11109SOL    HW234748   5.733   5.206   7.138  0.1084  1.3369 -1.1069
11110SOL     OW34749   6.508   5.160   1.395 -0.0262  0.4946 -0.4667
11110SOL    HW134750   6.512   5.075   1.352 -0.3989 -0.2038  0.8016
11110SOL    HW234751   6.438   5.207   1.349 -1.0062 -0.5482 -0.1157
11111SOL     OW34752   6.715   1.338   2.481 -0.2397  0.4168  0.5433
11111SOL    HW134753   6.811   1.344   2.473 -0.1894 -1.2965 -0.6318
11111SOL    HW234754   6.699   1.352   2.574  1.2242  0.0859  0.8831
11112SOL     OW34755   1.143   3.310   7.084 -0.2814  1.0489  0.2357
11112SOL    HW134756   1.121   3.219   7.062 -0.9275  1.6654 -1.9251
11112SOL    HW234757   1.102   3.324   7.170 -1.1646 -0.3461  0.0882
11113SOL     OW34758   4.251   7.215   0.245  0.2097  0.1932 -0.2251
11113SOL    HW134759   4.174   7.272   0.243  0.4671  0.7954  2.4555
11113SOL    HW234760   4.231   7.151   0.314  1.8868  0.0677  0.1801
11114SOL     OW34761   6.819   0.517   4.121 -0.6223  0.1558 -0.1589
11114SOL    HW134762   6.784   0.428   4.122 -1.1045  0.3308  1.3235
11114SOL    HW234763   6.742   0.573   4.113 -0.3449  0.4466 -0.8038
11115SOL     OW34764   0.802   8.008   5.907 -0.0574 -0.2002 -0.3322
11115SOL    HW134765   0.759   7.980   5.988 -0.2478 -1.3917 -0.8354
11115SOL    HW234766   0.767   8.095   5.891 -0.6517 -0.2888  0.4169
11116SOL     OW34767   3.122   1.395   0.292  0.1843 -0.0733 -0.5406
11116SOL    HW134768   3.187   1.334   0.259 -0.0957 -0.0431 -1.1660
11116SOL    HW234769   3.075   1.346   0.360 -1.5962 -1.4296 -2.6072
11117SOL     OW34770   4.882   2.447   7.630  0.0830 -0.0319  0.0567
11117SOL    HW134771   4.805   2.391   7.623  1.1302 -1.5177 -0.0483
11117SOL    HW234772   4.885   2.472   7.723 -0.2846 -0.3238  0.1478
11118SOL     OW34773   1.532   5.737   0.170 -0.2437  0.4956 -0.1357
11118SOL    HW134774   1.545   5.676   0.097 -1.9123  0.8341 -0.7628
11118SOL    HW234775   1.521   5.681   0.247 -1.6505 -0.0238 -0.6863
11119SOL     OW34776   7.134   3.916   2.099 -0.6738  0.3905  0.3205
11119SOL    HW134777   7.099   3.952   2.180 -1.8550 -0.2047  0.0993
11119SOL    HW234778   7.083   3.837   2.083  1.6523 -1.2703  0.6336
11120SOL     OW34779   3.095   1.693   7.419 -0.4635  0.5881  0.1504
11120SOL    HW134780   3.043   1.618   7.390 -1.1977  1.5175 -1.0591
11120SOL    HW234781   3.126   1.669   7.506 -1.7257 -0.5936  0.3062
11121SOL     OW34782   2.350   7.410   6.517 -0.2211  0.8839  0.0320
11121SOL    HW134783   2.259   7.430   6.536 -0.4600 -0.6863  0.6791
11121SOL    HW234784   2.347   7.356   6.437  0.1458  0.8942  0.0069
11122SOL     OW34785   3.211   6.696   7.087 -0.2042 -0.4101 -0.1017
11122SOL    HW134786   3.246   6.698   7.176  1.9086 -0.2138 -0.8654
11122SOL    HW234787   3.199   6.602   7.068  0.3738 -0.5134  0.0300
11123SOL     OW34788   3.957   1.946   3.051  0.4602  0.4531 -0.1357
11123SOL    HW134789   4.048   1.918   3.057  0.1292 -0.4004  2.0304
11123SOL    HW234790   3.907   1.865   3.050 -0.3428  0.8466  1.9510
11124SOL     OW34791   3.719   5.947   4.837 -0.4429 -0.3765  0.1939
11124SOL    HW134792   3.734   6.030   4.881 -1.1041 -0.1839  0.0592
11124SOL    HW234793   3.800   5.930   4.790 -0.8307  0.9342 -0.9965
11125SOL     OW34794   2.548   0.618   3.678  0.6263  0.4048  0.0379
11125SOL    HW134795   2.564   0.566   3.757  2.2978  2.6339  1.2986
11125SOL    HW234796   2.630   0.614   3.629  0.3914  0.9533 -0.4136
11126SOL     OW34797   6.900   1.818   3.491  0.2206 -0.1753 -0.1335
11126SOL    HW134798   6.952   1.891   3.524 -2.0161  1.5939 -0.2436
11126SOL    HW234799   6.811   1.838   3.518 -0.7731 -1.8825 -1.8612
11127SOL     OW34800   3.015   3.029   5.994  0.2436  0.2759  0.8048
11127SOL    HW134801   3.109   3.021   6.007  0.1301 -1.4713  0.8781
11127SOL    HW234802   2.985   3.086   6.064  1.5678  3.3184 -0.8794
11128SOL     OW34803   4.682   4.777   0.630 -0.0930 -0.2674  0.0532
11128SOL    HW134804   4.611   4.775   0.566  0.4724 -1.2647 -0.5695
11128SOL    HW234805   4.758   4.743   0.583  1.0324  1.5403  0.4610
11129SOL     OW34806   2.837   2.260   2.659  0.1591  0.2759  0.0055
11129SOL    HW134807   2.764   2.226   2.607  0.8629 -1.4248  0.0837
11129SOL    HW234808   2.807   2.345   2.689 -1.2464  0.2143 -1.1150
11130SOL     OW34809   5.294   5.078   3.525  0.3604 -0.3060  0.2980
11130SOL    HW134810   5.368   5.043   3.574  1.5862  0.4893 -0.9200
11130SOL    HW234811   5.301   5.039   3.438 -0.6954 -0.2623  0.1738
11131SOL     OW34812   0.740   2.056   3.103  0.3353  0.1523 -0.3921
11131SOL    HW134813   0.648   2.030   3.105  0.2849  0.3443  0.9469
11131SOL    HW234814   0.785   1.983   3.060 -0.2987 -0.4296 -0.0901
11132SOL     OW34815   7.247   6.156   6.977  0.0904  0.3990  0.4270
11132SOL    HW134816   7.259   6.222   6.908 -0.9736  0.2564  0.0808
11132SOL    HW234817   7.268   6.073   6.935 -2.3746  0.0831 -0.3448
11133SOL     OW34818   6.986   0.838   0.337  0.5916 -0.1024 -0.4305
11133SOL    HW134819   7.053   0.873   0.396  0.1710  0.9129 -0.5212
11133SOL    HW234820   7.014   0.868   0.250  1.1797 -1.5418 -0.7669
11134SOL     OW34821   5.835   3.149   0.333 -0.2363 -0.0667  0.5246
11134SOL    HW134822   5.859   3.130   0.242 -0.2187 -1.6141  0.8285
11134SOL    HW234823   5.739   3.141   0.334 -0.6802  3.4950 -0.0973
11135SOL     OW34824   1.527   5.336   1.318  0.1134  0.7401  0.2399
11135SOL    HW134825   1.477   5.377   1.247  0.0080  0.1234 -0.0486
11135SOL    HW234826   1.470   5.267   1.352  0.8082 -0.0748 -0.2005
11136SOL     OW34827   2.833   7.964   6.454 -0.0995 -0.0429 -0.3120
11136SOL    HW134828   2.895   7.892   6.468  0.0546  0.2107  0.3853
11136SOL    HW234829   2.760   7.924   6.406  0.3764 -0.4615 -0.6955
11137SOL     OW34830   4.000   7.278   1.524 -0.1461 -0.2901 -0.1688
11137SOL    HW134831   3.938   7.335   1.478 -0.8515 -1.2357 -0.4207
11137SOL    HW234832   3.946   7.207   1.559  0.7888 -1.1342 -0.3903
11138SOL     OW34833   1.850   7.979   6.017  0.8446  0.0718 -0.0093
11138SOL    HW134834   1.890   7.899   6.050  0.2632  0.0518  0.6778
11138SOL    HW234835   1.907   8.050   6.047  1.0002 -0.0390 -0.0465
11139SOL     OW34836   3.647   7.716   1.914  0.4772  0.0556  0.0344
11139SOL    HW134837   3.728   7.735   1.963  0.3967  0.8442 -0.1331
11139SOL    HW234838   3.676   7.659   1.842  0.6048 -1.0663  0.9492
11140SOL     OW34839   5.074   6.150   3.255  0.4441  0.1753 -0.1495
11140SOL    HW134840   5.112   6.187   3.335  0.8995 -0.5460 -0.0211
11140SOL    HW234841   5.150   6.124   3.202  0.1394 -0.2984 -0.3616
11141SOL     OW34842   6.380   6.213   7.251  0.5365 -0.0545 -0.1535
11141SOL    HW134843   6.358   6.220   7.343  1.8260 -0.3404  0.1974
11141SOL    HW234844   6.466   6.170   7.250  0.7149  0.2889 -1.4635
11142SOL     OW34845   7.844   7.402   7.075 -0.3454  0.5065  0.1624
11142SOL    HW134846   7.831   7.307   7.077 -2.9773  0.8142  0.8660
11142SOL    HW234847   7.790   7.433   7.003  0.5161  1.4904 -0.0825
11143SOL     OW34848   3.705   7.442   3.303  0.2109 -0.5374 -0.4771
11143SOL    HW134849   3.751   7.475   3.380 -1.9139  0.2389  0.5419
11143SOL    HW234850   3.725   7.349   3.301 -0.7741 -0.8754  1.8889
11144SOL     OW34851   4.897   5.150   0.583 -0.4012 -0.9924  0.4810
11144SOL    HW134852   4.901   5.122   0.675  1.7885 -1.5772  0.2623
11144SOL    HW234853   4.984   5.185   0.565 -1.5093  1.2903 -0.7570
11145SOL     OW34854   4.818   1.886   6.428 -0.0458 -0.1723 -0.3148
11145SOL    HW134855   4.861   1.947   6.367 -0.4377  0.8774  0.4283
11145SOL    HW234856   4.728   1.918   6.433 -0.3641 -1.0765 -0.2282
11146SOL     OW34857   5.798   7.277   4.820 -0.6943 -0.3826  0.2888
11146SOL    HW134858   5.764   7.193   4.787 -0.7272  0.2555 -1.4106
11146SOL    HW234859   5.882   7.289   4.775 -0.2689  0.0946  1.1812
11147SOL     OW34860   1.436   3.418   5.335 -0.2539  0.7631 -0.4223
11147SOL    HW134861   1.489   3.493   5.361  1.3922 -0.0901 -1.1323
11147SOL    HW234862   1.451   3.410   5.241  1.6942 -1.9046 -0.0255
11148SOL     OW34863   7.894   4.266   3.123 -0.1215  0.2676  0.5005
11148SOL    HW134864   7.907   4.186   3.174  0.2290 -0.0967 -0.1342
11148SOL    HW234865   7.812   4.251   3.077  0.3463 -0.0912 -0.2454
11149SOL     OW34866   4.552   0.638   7.722  0.3030  0.7294 -0.1825
11149SOL    HW134867   4.606   0.634   7.801  0.7264 -0.4989 -0.5023
11149SOL    HW234868   4.483   0.573   7.738  0.5875  0.2318 -0.9565
11150SOL     OW34869   2.918   7.073   2.815  0.0756  0.3966 -0.4020
11150SOL    HW134870   2.982   7.008   2.844  0.6962  0.4163 -1.6410
11150SOL    HW234871   2.862   7.027   2.753 -1.0762  0.4109  0.5945
11151SOL     OW34872   7.982   4.855   3.602 -0.2758  0.3856  0.4412
11151SOL    HW134873   8.011   4.826   3.689 -0.1597 -2.0304 -0.3399
11151SOL    HW234874   7.897   4.897   3.619  0.2781  1.0158  1.8413
11152SOL     OW34875   3.555   4.593   1.562 -1.1330 -0.8988  0.1591
11152SOL    HW134876   3.505   4.561   1.488 -0.7218 -2.1555  0.3913
11152SOL    HW234877   3.545   4.688   1.560 -1.0810 -0.9086 -1.5278
11153SOL     OW34878   5.497   0.111   0.239  0.0902 -0.1480 -0.3082
11153SOL    HW134879   5.522   0.085   0.328  2.1356 -0.1474 -0.8304
11153SOL    HW234880   5.543   0.193   0.225 -1.4295  0.6370 -0.8665
11154SOL     OW34881   7.325   7.629   0.219  0.4990 -0.6211  0.5222
11154SOL    HW134882   7.241   7.631   0.174  0.6853  0.6840  0.1898
11154SOL    HW234883   7.375   7.561   0.175  0.2510 -0.1687 -0.4788
11155SOL     OW34884   7.941   4.192   3.893  0.2109 -0.0470  0.2378
11155SOL    HW134885   7.887   4.265   3.864 -0.1854 -0.7139 -0.7644
11155SOL    HW234886   7.898   4.160   3.972  0.3346  0.7340  0.6281
11156SOL     OW34887   5.001   3.144   6.992 -0.1622 -0.3894 -0.5100
11156SOL    HW134888   5.047   3.088   6.930  1.1920 -0.8749  0.8877
11156SOL    HW234889   5.026   3.112   7.078 -1.0089  1.0468  0.3228
11157SOL     OW34890   6.782   6.826   3.113  0.4586 -0.5305  0.6516
11157SOL    HW134891   6.780   6.732   3.135 -2.5880 -0.9177 -0.7595
11157SOL    HW234892   6.754   6.829   3.021  0.6991  1.7588  0.6117
11158SOL     OW34893   3.543   6.598   0.319 -0.4434  0.0826  0.2480
11158SOL    HW134894   3.562   6.691   0.337 -0.7555 -0.1043  1.6223
11158SOL    HW234895   3.629   6.556   0.320 -0.5033 -0.1133  2.6331
11159SOL     OW34896   4.302   7.146   7.981 -0.0853 -0.0702  0.8300
11159SOL    HW134897   4.230   7.209   7.982  0.8788  1.0952 -0.3633
11159SOL    HW234898   4.379   7.198   7.960  1.2364 -1.1922  2.6108
11160SOL     OW34899   2.440   3.316   1.643  0.4865  0.6421  0.1961
11160SOL    HW134900   2.377   3.328   1.715  1.0033  0.5335  0.6684
11160SOL    HW234901   2.492   3.396   1.643 -0.1054  1.0512 -0.6663
11161SOL     OW34902   7.816   5.287   3.275  0.0666 -0.1433 -0.0144
11161SOL    HW134903   7.743   5.255   3.328  0.2565  0.4377  0.6074
11161SOL    HW234904   7.800   5.381   3.266  1.5353  0.2842  1.4335
11162SOL     OW34905   0.755   0.755   1.986  0.6664  0.2044 -0.1189
11162SOL    HW134906   0.676   0.712   2.016  0.6703  0.7108  0.6473
11162SOL    HW234907   0.742   0.768   1.892 -0.7955  1.5949  0.2405
11163SOL     OW34908   4.785   2.464   5.862 -0.4961 -0.4610  0.1016
11163SOL    HW134909   4.781   2.552   5.901  2.2774 -0.0111 -0.4736
11163SOL    HW234910   4.860   2.467   5.803 -0.7651 -3.0340 -0.4789
11164SOL     OW34911   6.709   6.150   2.521 -0.1740 -0.4851 -0.1857
11164SOL    HW134912   6.704   6.218   2.588  0.0976 -1.2720  0.6482
11164SOL    HW234913   6.664   6.188   2.445  0.3411  0.7788  0.1154
11165SOL     OW34914   3.869   6.639   7.135  0.2060 -0.1363  0.2082
11165SOL    HW134915   3.828   6.652   7.049  2.6819 -1.7983 -1.3468
11165SOL    HW234916   3.899   6.727   7.160  0.3997  0.2292 -1.1788
11166SOL     OW34917   6.547   4.107   1.956 -0.4587 -0.4504  0.0670
11166SOL    HW134918   6.602   4.111   2.034 -0.5134  0.1573  0.0783
11166SOL    HW234919   6.608   4.120   1.883 -0.2624 -1.9613 -0.0597
11167SOL     OW34920   7.099   0.484   5.324  0.1950 -0.3962 -0.2180
11167SOL    HW134921   7.122   0.413   5.263 -0.6523  0.1483 -1.2084
11167SOL    HW234922   7.054   0.549   5.269 -0.3315  0.2556  0.9479
11168SOL     OW34923   3.157   3.905   5.878 -0.1153  0.3382  0.0270
11168SOL    HW134924   3.096   3.833   5.899  0.2524 -0.0615 -0.2478
11168SOL    HW234925   3.111   3.957   5.812  0.3098 -0.6671 -1.1187
11169SOL     OW34926   5.018   3.091   5.918 -0.4997  0.2303  0.2021
11169SOL    HW134927   4.961   3.137   5.980  0.0829  1.7768 -0.3547
11169SOL    HW234928   5.097   3.145   5.914  0.0215 -0.5761 -0.8437
11170SOL     OW34929   2.738   5.922   4.949 -0.2402 -0.5134  0.5197
11170SOL    HW134930   2.662   5.928   4.891  2.2495 -0.2429 -3.0454
11170SOL    HW234931   2.778   6.009   4.944  1.1187 -1.0875  1.0381
11171SOL     OW34932   2.912   4.250   7.477 -0.4951 -0.4920 -0.1793
11171SOL    HW134933   2.947   4.339   7.464  0.9130 -0.9718  0.1029
11171SOL    HW234934   2.978   4.193   7.436 -0.1737 -1.5353  1.7064
11172SOL     OW34935   4.339   2.607   2.035  0.2934 -0.6338 -0.0480
11172SOL    HW134936   4.306   2.651   1.957 -1.5061  1.7902  1.9310
11172SOL    HW234937   4.392   2.673   2.079  0.0122 -1.4258  1.5341
11173SOL     OW34938   8.028   4.835   5.958 -0.0487  0.0992 -0.2937
11173SOL    HW134939   8.116   4.806   5.935  0.2776 -1.8736  2.8803
11173SOL    HW234940   7.970   4.780   5.906  0.4895  1.5161 -2.5183
11174SOL     OW34941   4.501   7.709   5.314 -0.1878 -0.1211 -0.2442
11174SOL    HW134942   4.493   7.735   5.222 -0.9008 -1.4160 -0.5726
11174SOL    HW234943   4.414   7.724   5.351  0.7274  2.8998  0.9644
11175SOL     OW34944   0.932   4.901   6.585 -0.4020 -0.5981 -0.2566
11175SOL    HW134945   0.915   4.817   6.544  0.0885 -1.0637  0.4765
11175SOL    HW234946   0.947   4.881   6.677 -0.8193  0.3509  0.0390
11176SOL     OW34947   5.744   7.513   0.506 -0.2705  0.5265 -0.5206
11176SOL    HW134948   5.712   7.547   0.590 -0.0591 -0.4272 -0.0396
11176SOL    HW234949   5.831   7.478   0.526 -1.3460 -2.3517 -0.4283
11177SOL     OW34950   0.316   7.841   2.710  0.3112  0.6895  0.5107
11177SOL    HW134951   0.222   7.861   2.705  0.1538  0.0094  0.5593
11177SOL    HW234952   0.350   7.865   2.624  0.1159  1.0438  0.5288
11178SOL     OW34953   2.000   2.948   0.127  0.5667  0.3149 -0.4840
11178SOL    HW134954   1.971   2.912   0.211  0.2164 -0.2417 -0.8406
11178SOL    HW234955   2.080   2.898   0.106  0.0059 -0.3769 -1.0442
11179SOL     OW34956   3.466   3.859   0.733 -0.1724 -0.0061  0.0187
11179SOL    HW134957   3.533   3.829   0.671 -1.1688  1.2737 -1.7547
11179SOL    HW234958   3.460   3.788   0.797  0.7130 -1.5362 -1.4944
11180SOL     OW34959   6.722   0.505   6.687  0.3779  0.2704  0.4065
11180SOL    HW134960   6.693   0.579   6.633 -0.1327 -0.7703 -0.8254
11180SOL    HW234961   6.742   0.436   6.623  0.9016 -0.6297  1.5154
11181SOL     OW34962   5.245   1.205   2.686  0.2080  0.1681  0.5723
11181SOL    HW134963   5.332   1.232   2.715  0.5194 -2.3395  2.2897
11181SOL    HW234964   5.259   1.171   2.598  0.6029  1.3351  0.1629
11182SOL     OW34965   7.628   0.934   7.899  0.2663  0.1809 -0.5388
11182SOL    HW134966   7.615   1.020   7.859  0.8798  0.6041  0.1450
11182SOL    HW234967   7.632   0.951   7.993 -0.9811 -0.7778 -0.2820
11183SOL     OW34968   1.829   2.024   6.353 -0.2730  0.6007 -0.5659
11183SOL    HW134969   1.767   2.078   6.403 -0.1881 -0.3871  0.6487
11183SOL    HW234970   1.900   2.006   6.415 -0.0982 -0.5375 -1.0744
11184SOL     OW34971   5.009   6.498   7.824 -0.0772  0.2033 -0.4173
11184SOL    HW134972   5.089   6.547   7.804  0.1447  0.3709  0.7721
11184SOL    HW234973   4.939   6.547   7.783  0.3734  0.3645 -1.0041
11185SOL     OW34974   1.537   4.976   1.546  0.1483  0.1865 -0.2336
11185SOL    HW134975   1.538   4.911   1.476  0.2795  0.3236 -0.3582
11185SOL    HW234976   1.601   4.944   1.609 -0.1671 -0.0825 -0.0405
11186SOL     OW34977   1.765   2.136   2.821 -0.4749 -0.0779  0.1326
11186SOL    HW134978   1.686   2.190   2.822  0.4985  1.4101 -0.0890
11186SOL    HW234979   1.803   2.150   2.734 -0.0865 -0.9628  0.1468
11187SOL     OW34980   7.229   7.278   5.463  0.3332 -0.1996  0.6666
11187SOL    HW134981   7.175   7.356   5.476 -0.9071 -0.6906 -1.0865
11187SOL    HW234982   7.315   7.311   5.438  0.2120  0.6084  1.3153
11188SOL     OW34983   7.661   5.210   6.240  0.5021  0.3173 -0.0313
11188SOL    HW134984   7.591   5.259   6.198  1.4056  0.6576 -1.2012
11188SOL    HW234985   7.706   5.274   6.296 -0.3178  0.0130  1.0018
11189SOL     OW34986   6.888   6.344   3.489 -0.0785  0.1169  0.4090
11189SOL    HW134987   6.916   6.282   3.422  1.6962  0.1433  1.0641
11189SOL    HW234988   6.793   6.352   3.477 -0.0303 -1.0876 -1.0421
11190SOL     OW34989   6.972   5.170   6.791 -0.5241  0.5550 -0.2632
11190SOL    HW134990   7.031   5.130   6.855 -0.9556  0.3264 -0.0023
11190SOL    HW234991   6.912   5.223   6.845 -0.1584  1.2966 -0.5757
11191SOL     OW34992   0.340   4.389   2.946 -0.1261 -0.1078  0.2845
11191SOL    HW134993   0.262   4.342   2.974 -1.3945  1.5109 -0.3258
11191SOL    HW234994   0.363   4.444   3.021  0.0273 -0.0996  0.2316
11192SOL     OW34995   0.679   1.946   1.029 -0.1089 -0.6562 -0.1798
11192SOL    HW134996   0.595   1.948   0.982 -0.7671  1.0578  0.9842
11192SOL    HW234997   0.654   1.932   1.120  0.8596  0.1029  0.2109
11193SOL     OW34998   5.005   0.604   1.353 -0.1669 -0.5591 -0.1678
11193SOL    HW134999   4.911   0.618   1.340 -0.1331 -0.9440 -0.8902
11193SOL    HW235000   5.012   0.513   1.383  0.0340 -0.8639 -1.0805
11194SOL     OW35001   2.799   2.983   2.705  0.1384  0.3017 -0.2407
11194SOL    HW135002   2.868   3.031   2.751 -0.9239  1.1365  0.5685
11194SOL    HW235003   2.727   2.980   2.768 -0.4820 -0.7565 -0.9716
11195SOL     OW35004   6.348   0.150   3.147 -0.0151  0.6763 -0.7979
11195SOL    HW135005   6.436   0.125   3.120 -0.7755 -1.9453 -1.1290
11195SOL    HW235006   6.291   0.081   3.113 -2.4165  2.8814 -1.6443
11196SOL     OW35007   5.223   6.067   4.872 -0.3455  0.2250  0.2062
11196SOL    HW135008   5.222   6.159   4.900 -1.0065  0.2504  0.1116
11196SOL    HW235009   5.203   6.019   4.952  0.6039  0.1180  0.3915
11197SOL     OW35010   6.225   4.697   0.620 -0.0501 -0.0865 -0.0422
11197SOL    HW135011   6.287   4.768   0.637  0.2576 -0.2903 -0.2992
11197SOL    HW235012   6.277   4.630   0.575 -0.8756  0.4909 -1.9525
11198SOL     OW35013   4.364   4.451   0.002  0.1788 -0.4474  0.0711
11198SOL    HW135014   4.303   4.455  -0.071 -0.1432 -0.2472  0.3483
11198SOL    HW235015   4.309   4.453   0.080  0.5469 -0.0172  0.3288
11199SOL     OW35016   7.914   0.807   0.159  0.3004  0.1438 -0.5692
11199SOL    HW135017   7.919   0.783   0.066 -1.2898 -0.2265 -0.5912
11199SOL    HW235018   7.943   0.728   0.206  0.8520  0.2416 -0.7391
11200SOL     OW35019   6.488   4.843   5.150 -0.0294 -0.2099  0.0262
11200SOL    HW135020   6.402   4.840   5.193 -0.2652  1.3913 -0.2789
11200SOL    HW235021   6.550   4.857   5.222 -0.2032  0.3765  0.0598
11201SOL     OW35022   7.948   0.441   0.943  0.0129 -0.2204 -0.1114
11201SOL    HW135023   8.042   0.431   0.957 -0.0738  0.2341  0.9091
11201SOL    HW235024   7.934   0.415   0.852  1.1544 -0.0693 -0.3445
11202SOL     OW35025   7.395   4.429   0.374  0.2411  0.1460 -0.3921
11202SOL    HW135026   7.379   4.360   0.439  0.5159  0.0004 -0.4779
11202SOL    HW235027   7.457   4.390   0.313  0.2696  0.4143 -0.5349
11203SOL     OW35028   3.987   7.453   6.049 -0.3493  0.7127  0.2652
11203SOL    HW135029   3.942   7.532   6.017  1.4304  1.8655  0.4367
11203SOL    HW235030   4.047   7.486   6.117 -0.5588 -1.0043  1.3334
11204SOL     OW35031   1.955   7.864   2.854  0.1541  0.5215  0.7140
11204SOL    HW135032   1.872   7.909   2.872  0.3539  1.7627 -1.1400
11204SOL    HW235033   1.929   7.774   2.835 -0.5834  0.5064  1.6992
11205SOL     OW35034   3.654   3.100   1.919 -0.1282 -0.9401  0.3728
11205SOL    HW135035   3.629   3.108   2.011 -0.0406 -0.2625  0.3421
11205SOL    HW235036   3.571   3.085   1.873 -0.3620  0.2047  0.3976
11206SOL     OW35037   0.537   0.298   2.319  0.6775  0.2176 -0.1389
11206SOL    HW135038   0.506   0.370   2.375 -0.1526 -0.3449  0.1374
11206SOL    HW235039   0.471   0.292   2.250  0.5032 -0.5624  0.0842
11207SOL     OW35040   6.103   7.904   1.016 -0.3313  0.4408  0.3797
11207SOL    HW135041   6.075   7.978   1.068  1.9612  2.2193 -0.7151
11207SOL    HW235042   6.061   7.917   0.931 -2.3862 -1.3009  1.0421
11208SOL     OW35043   3.921   3.269   7.717 -0.1895  0.5641 -0.0300
11208SOL    HW135044   3.924   3.188   7.666  0.8492 -0.1688  1.1383
11208SOL    HW235045   3.857   3.323   7.671  0.5670 -0.1105 -2.0113
11209SOL     OW35046   3.964   6.012   2.990 -0.2264  0.3759  0.2390
11209SOL    HW135047   3.868   6.013   2.987 -0.2162  0.1780 -0.2845
11209SOL    HW235048   3.991   5.999   2.899  0.3587  2.8984 -0.0222
11210SOL     OW35049   3.947   2.020   1.287 -0.2750  0.1675  0.1518
11210SOL    HW135050   3.986   2.052   1.368  0.1579 -0.3543  0.1546
11210SOL    HW235051   3.858   2.055   1.287 -0.1820  0.4095  0.7079
11211SOL     OW35052   7.941   2.290   7.590  0.6084  0.3892  0.6042
11211SOL    HW135053   7.984   2.374   7.575  1.1684  0.3198  1.7400
11211SOL    HW235054   7.959   2.240   7.510  2.5307  0.4122  0.9804
11212SOL     OW35055   6.672   7.515   3.455  0.1387  0.0569 -0.1765
11212SOL    HW135056   6.754   7.562   3.445  0.4136  0.5678  3.1632
11212SOL    HW235057   6.688   7.454   3.526 -1.7667 -1.4149 -0.9209
11213SOL     OW35058   6.629   4.869   6.089 -0.2184 -0.1089 -0.1091
11213SOL    HW135059   6.626   4.964   6.097  0.2445 -0.1035  0.0009
11213SOL    HW235060   6.721   4.846   6.102 -0.0315 -0.4345 -1.6984
11214SOL     OW35061   5.970   7.089   1.056 -0.1542  0.1523 -0.1359
11214SOL    HW135062   5.910   7.141   1.001 -0.8228 -0.3523  0.1097
11214SOL    HW235063   6.013   7.154   1.111 -0.8497  0.4793  0.0361
11215SOL     OW35064   7.373   0.722   1.750  0.1357  0.0081 -0.0906
11215SOL    HW135065   7.324   0.799   1.777  0.6674  0.1174  0.5978
11215SOL    HW235066   7.451   0.722   1.806 -0.1625 -1.3702  0.3764
11216SOL     OW35067   4.929   1.199   1.288 -0.3759 -0.0018  0.0702
11216SOL    HW135068   5.019   1.230   1.274 -0.0042  1.1871  4.0060
11216SOL    HW235069   4.878   1.279   1.303 -1.7677 -0.7813 -0.3233
11217SOL     OW35070   0.681   5.393   2.484  0.3770 -0.0875 -0.3869
11217SOL    HW135071   0.593   5.430   2.473  0.8567  1.5370  0.8705
11217SOL    HW235072   0.683   5.361   2.574  1.2675  0.4761 -0.1968
11218SOL     OW35073   3.424   6.812   1.274  0.2961  0.3836  0.1413
11218SOL    HW135074   3.454   6.779   1.190 -2.0782  1.0068 -1.0425
11218SOL    HW235075   3.483   6.885   1.293  0.7425  0.3781 -1.1052
11219SOL     OW35076   7.855   2.196   5.302 -0.1793 -0.2124 -0.5513
11219SOL    HW135077   7.945   2.170   5.325 -0.1840  0.4955  0.3385
11219SOL    HW235078   7.827   2.250   5.376 -1.5327 -0.8681 -0.5613
11220SOL     OW35079   4.111   3.968   2.280  0.0818  0.0686  0.2591
11220SOL    HW135080   4.074   3.886   2.314 -0.1599  0.6323  1.3797
11220SOL    HW235081   4.038   4.030   2.282  0.0094  0.1015 -1.4589
11221SOL     OW35082   0.085   5.613   0.489 -0.2813 -0.0060 -0.1191
11221SOL    HW135083   0.012   5.560   0.521 -1.1316 -0.3159 -2.3605
11221SOL    HW235084   0.102   5.676   0.559 -2.5025 -0.1224  0.5959
11222SOL     OW35085   4.373   5.189   1.678  0.0932 -0.5371  0.1488
11222SOL    HW135086   4.451   5.135   1.685  0.4379 -0.1017 -0.2527
11222SOL    HW235087   4.376   5.225   1.589 -0.4646 -0.3680  0.1913
11223SOL     OW35088   6.762   0.349   3.653  0.1134 -0.2709 -0.4854
11223SOL    HW135089   6.687   0.407   3.671 -1.2282 -1.9168 -0.4680
11223SOL    HW235090   6.766   0.291   3.729  1.0327 -0.5958 -0.7744
11224SOL     OW35091   7.247   1.388   7.829 -0.7409  0.5519 -0.5097
11224SOL    HW135092   7.219   1.346   7.748  0.0193 -0.9616 -0.0154
11224SOL    HW235093   7.329   1.432   7.805  0.8216 -1.9478 -0.0526
11225SOL     OW35094   0.001   4.155   2.112  0.1263 -0.1330 -0.2386
11225SOL    HW135095  -0.045   4.117   2.037 -0.2660  0.0089 -0.0753
11225SOL    HW235096  -0.055   4.227   2.139  1.7559  1.7727 -1.6834
11226SOL     OW35097   1.142   1.667   6.902 -0.5510 -0.4629 -0.1382
11226SOL    HW135098   1.104   1.657   6.989 -1.1870 -0.9179 -0.4671
11226SOL    HW235099   1.067   1.674   6.843 -0.2069  2.4309 -0.4021
11227SOL     OW35100   7.904   5.496   6.835 -0.1693  0.6943  0.1331
11227SOL    HW135101   7.899   5.461   6.746 -1.1748 -0.9540  0.7910
11227SOL    HW235102   7.816   5.531   6.852 -0.8159 -1.3952  1.3623
11228SOL     OW35103   2.298   6.958   1.509 -0.0126 -0.0169  0.2554
11228SOL    HW135104   2.325   7.039   1.553  1.5165 -0.2250 -0.2567
11228SOL    HW235105   2.217   6.933   1.554 -0.4157  1.6760  0.5595
11229SOL     OW35106   2.061   7.817   6.399 -0.3190  0.3823 -0.2664
11229SOL    HW135107   2.145   7.859   6.417 -0.7850  1.1833  0.0687
11229SOL    HW235108   2.081   7.750   6.334  0.4866  0.9100 -0.5690
11230SOL     OW35109   5.648   1.979   7.480  0.0832  0.0556 -0.1296
11230SOL    HW135110   5.554   1.997   7.485 -0.3538 -1.7952 -0.8974
11230SOL    HW235111   5.670   1.993   7.388  0.3321 -0.4849 -0.1551
11231SOL     OW35112   1.428   0.001   3.023  0.4828  0.1799  0.3457
11231SOL    HW135113   1.429   0.053   2.942 -0.0823  1.2620  1.0089
11231SOL    HW235114   1.495   0.042   3.078  0.5795 -0.2963  0.5818
11232SOL     OW35115   3.142   8.014   7.282 -0.2950 -0.3050  0.4234
11232SOL    HW135116   3.204   8.052   7.344 -0.5197 -2.3690  2.0231
11232SOL    HW235117   3.059   8.012   7.330 -1.3851  1.2524 -1.2308
11233SOL     OW35118   1.831   3.887   7.787  0.1630 -0.9902 -0.2267
11233SOL    HW135119   1.815   3.855   7.876  0.8167  0.7035  0.5409
11233SOL    HW235120   1.925   3.903   7.784  0.3391 -2.1142 -1.6400
11234SOL     OW35121   0.229   2.346   1.358  0.5158  0.6772  0.1999
11234SOL    HW135122   0.260   2.373   1.444 -0.4579 -2.4099  1.6602
11234SOL    HW235123   0.283   2.270   1.335 -0.8011 -0.0271 -0.7692
11235SOL     OW35124   7.697   2.036   4.321  0.0534  0.0202  0.5252
11235SOL    HW135125   7.742   2.009   4.401  2.3719 -0.1615 -0.7533
11235SOL    HW235126   7.623   1.976   4.314  0.8271 -1.1167  1.6178
11236SOL     OW35127   1.895   5.566   2.071  0.7703  0.2381  0.3237
11236SOL    HW135128   1.810   5.528   2.094  0.7852  0.7695  1.3238
11236SOL    HW235129   1.889   5.657   2.100  1.6914  0.2779  0.4270
11237SOL     OW35130   0.329   0.051   6.001 -0.3478 -0.2455 -0.6874
11237SOL    HW135131   0.297   0.114   6.065 -0.9631  2.2027 -3.2413
11237SOL    HW235132   0.424   0.055   6.008 -0.2883  2.3188 -1.8894
11238SOL     OW35133   1.856   2.424   6.663 -0.1226 -0.1454 -0.1786
11238SOL    HW135134   1.840   2.397   6.754  0.6106 -1.0570 -0.2982
11238SOL    HW235135   1.951   2.439   6.660 -0.3655  1.5335 -0.3859
11239SOL     OW35136   5.446   2.475   2.293 -0.5446 -0.1929  0.0925
11239SOL    HW135137   5.418   2.552   2.243 -1.9954 -0.0529  1.0586
11239SOL    HW235138   5.532   2.499   2.328 -0.3586  0.4320 -0.7641
11240SOL     OW35139   6.559   7.448   2.259 -0.0305  0.4966 -0.1350
11240SOL    HW135140   6.603   7.386   2.317  1.0233  1.6659  0.3741
11240SOL    HW235141   6.523   7.395   2.188  0.3658 -0.7344  0.5653
11241SOL     OW35142   4.948   6.601   4.343  0.2104  0.6068  0.1667
11241SOL    HW135143   4.949   6.576   4.435 -1.2244 -0.7073 -0.1412
11241SOL    HW235144   5.002   6.535   4.300 -0.1743  0.4650 -0.0992
11242SOL     OW35145   4.153   0.168   7.907 -0.1228 -0.0007  0.1049
11242SOL    HW135146   4.066   0.199   7.930 -0.4693  0.0985 -1.2438
11242SOL    HW235147   4.208   0.247   7.907  0.3256 -0.2455  2.3152
11243SOL     OW35148   5.825   5.521   0.047 -0.2931  0.3498 -0.5286
11243SOL    HW135149   5.905   5.470   0.058 -1.6636 -1.6863  0.8005
11243SOL    HW235150   5.846   5.608   0.081  1.2919 -0.1920 -0.0346
11244SOL     OW35151   4.648   5.592   3.792  0.4801 -0.0677 -0.3746
11244SOL    HW135152   4.645   5.506   3.833  0.2907  1.3228  2.8387
11244SOL    HW235153   4.733   5.595   3.747  1.6066 -1.1052  1.5572
11245SOL     OW35154   1.429   4.828   6.118 -0.4147  0.4693  0.1038
11245SOL    HW135155   1.357   4.859   6.172 -0.0660 -0.4601  1.1428
11245SOL    HW235156   1.502   4.886   6.141 -0.4022  0.3890  0.2729
11246SOL     OW35157   4.199   1.858   5.542  0.0149  0.0657 -0.2495
11246SOL    HW135158   4.105   1.870   5.559  0.2027 -0.9041  1.7961
11246SOL    HW235159   4.238   1.852   5.629  1.9032 -0.1368 -1.0766
11247SOL     OW35160   4.172   4.221   2.513  0.0661 -0.0456 -0.2003
11247SOL    HW135161   4.095   4.227   2.457 -1.2942  0.5982  1.6162
11247SOL    HW235162   4.143   4.170   2.589  1.2188  0.7855  0.8480
11248SOL     OW35163   1.244   7.830   5.206 -0.2445 -0.0186  0.1738
11248SOL    HW135164   1.311   7.898   5.207  0.3752 -0.5959  2.0422
11248SOL    HW235165   1.174   7.865   5.261 -1.4614  0.5102 -1.6251
11249SOL     OW35166   5.104   4.217   1.832  0.5863  0.5068  0.6905
11249SOL    HW135167   5.103   4.273   1.754  0.1632 -0.3321  0.0826
11249SOL    HW235168   5.012   4.205   1.853  0.6009 -0.9987  0.0372
11250SOL     OW35169   2.539   0.340   2.317 -0.0452 -0.2313  0.3260
11250SOL    HW135170   2.597   0.415   2.305 -0.4934  0.3422  1.5012
11250SOL    HW235171   2.547   0.290   2.237  0.4892  0.9285 -0.3761
11251SOL     OW35172   2.544   5.848   2.355 -0.3522 -0.8007  0.1600
11251SOL    HW135173   2.633   5.852   2.319  0.4148 -1.5063  1.8362
11251SOL    HW235174   2.488   5.824   2.282  0.9252 -0.8985 -0.8096
11252SOL     OW35175   1.265   1.452   5.540  0.4067  0.2146 -0.1636
11252SOL    HW135176   1.333   1.476   5.477  0.1256 -2.5536 -1.7261
11252SOL    HW235177   1.312   1.415   5.614  0.6773 -0.5922 -0.7220
11253SOL     OW35178   6.178   3.082   2.062 -0.4670 -0.1514  0.4170
11253SOL    HW135179   6.134   3.137   1.997 -0.4842 -0.6462  0.0110
11253SOL    HW235180   6.106   3.050   2.118 -0.5358 -0.3109  0.2392
11254SOL     OW35181   2.561   2.132   1.801 -0.7308 -0.0012 -0.1335
11254SOL    HW135182   2.600   2.122   1.887 -3.2784  1.2640  1.2763
11254SOL    HW235183   2.553   2.226   1.789 -2.6897 -0.1903 -0.6101
11255SOL     OW35184   2.466   3.271   7.648 -0.0812 -0.0974  0.2439
11255SOL    HW135185   2.402   3.219   7.598  0.0235  0.5792 -0.6319
11255SOL    HW235186   2.549   3.259   7.600  0.1665  0.0377  0.6361
11256SOL     OW35187   1.849   6.095   7.650  0.0720 -0.3157 -0.0672
11256SOL    HW135188   1.868   6.187   7.664  1.1014 -0.5570  0.2271
11256SOL    HW235189   1.879   6.077   7.561  0.6572 -0.5589  0.1762
11257SOL     OW35190   1.535   2.316   4.307 -0.0535  0.1727  0.1131
11257SOL    HW135191   1.516   2.372   4.382 -0.0485 -0.6897  0.7675
11257SOL    HW235192   1.631   2.312   4.304 -0.0457  0.5703 -0.2162
11258SOL     OW35193   3.234   2.535   3.047 -0.9551  0.1465  0.0780
11258SOL    HW135194   3.188   2.512   2.967 -1.1700 -1.5723  0.6396
11258SOL    HW235195   3.255   2.450   3.087 -0.3879  0.9545  1.5650
11259SOL     OW35196   0.087   5.702   6.003 -0.6362  0.3804 -0.0298
11259SOL    HW135197   0.163   5.756   6.024 -1.6312  1.7670  0.1157
11259SOL    HW235198   0.125   5.621   5.969  0.9222  0.5998  1.0328
11260SOL     OW35199   4.750   6.031   0.791  0.3174  0.2805  0.6149
11260SOL    HW135200   4.806   5.992   0.723  0.3414  3.1253 -1.1714
11260SOL    HW235201   4.780   5.991   0.872  2.8004 -0.6339 -0.6458
11261SOL     OW35202   3.272   1.541   2.657 -0.0723  0.8024  0.2506
11261SOL    HW135203   3.323   1.499   2.726 -0.8704  0.2269  0.4986
11261SOL    HW235204   3.303   1.500   2.576  1.1711  1.7813  0.1959
11262SOL     OW35205   3.171   2.229   5.556 -0.2193 -0.1041 -0.2398
11262SOL    HW135206   3.263   2.220   5.532 -0.0163 -1.8979  1.0303
11262SOL    HW235207   3.142   2.308   5.510  2.6109  2.0163  1.3431
11263SOL     OW35208   2.665   7.697   2.289  0.0125  0.0278  0.6390
11263SOL    HW135209   2.670   7.789   2.265  0.9335  0.1479  1.2303
11263SOL    HW235210   2.662   7.697   2.384  1.4035 -0.5735  0.7099
11264SOL     OW35211   6.682   4.682   2.944  0.1712  0.5457 -0.3196
11264SOL    HW135212   6.610   4.618   2.943 -1.0531  1.8152 -2.8567
11264SOL    HW235213   6.671   4.729   3.027  0.6206 -1.9034  1.2353
11265SOL     OW35214   5.769   1.059   6.596 -0.2922 -0.4195 -0.3353
11265SOL    HW135215   5.784   0.977   6.643 -1.6196  0.1572  1.1980
11265SOL    HW235216   5.735   1.031   6.511  1.1753 -1.4725 -0.6150
11266SOL     OW35217   0.940   1.951   2.229 -0.0603  0.2848  0.4398
11266SOL    HW135218   0.858   1.925   2.270  0.0527 -1.1599 -0.1905
11266SOL    HW235219   0.974   2.020   2.285 -1.0357 -0.0399  1.4703
11267SOL     OW35220   3.099   0.908   5.697 -0.1684 -0.0438 -0.4359
11267SOL    HW135221   3.040   0.886   5.625 -0.5509  1.5244 -0.6221
11267SOL    HW235222   3.122   0.823   5.735 -0.7107 -0.8350 -1.7975
11268SOL     OW35223   2.344   4.821   0.881  0.2801  0.0512 -0.2807
11268SOL    HW135224   2.366   4.856   0.795  2.4809  0.1607  0.2634
11268SOL    HW235225   2.364   4.728   0.875  0.7597  0.1167  0.1873
11269SOL     OW35226   4.993   1.158   4.274  0.1145 -0.0128 -0.0425
11269SOL    HW135227   4.965   1.242   4.237 -0.2042  0.4031  1.1121
11269SOL    HW235228   4.976   1.094   4.204 -0.2645  0.7822 -0.6883
11270SOL     OW35229   4.567   4.685   3.906 -0.0462  0.3609  0.5247
11270SOL    HW135230   4.524   4.635   3.975  1.1426  0.4572  1.3507
11270SOL    HW235231   4.612   4.756   3.952 -0.1627  1.1048 -0.4605
11271SOL     OW35232   4.752   2.916   7.617  0.2180 -0.2026  0.0406
11271SOL    HW135233   4.835   2.882   7.651  0.5122 -0.2206 -0.6770
11271SOL    HW235234   4.688   2.895   7.685  0.5627 -1.3692  0.0310
11272SOL     OW35235   7.831   0.681   1.006  0.7852  0.3248 -0.2805
11272SOL    HW135236   7.794   0.713   0.924 -0.5086  1.0634  0.5557
11272SOL    HW235237   7.854   0.590   0.988  0.3990  0.4400 -1.4248
11273SOL     OW35238   2.206   3.646   0.065  0.3723 -0.0597 -0.0674
11273SOL    HW135239   2.294   3.625   0.097  0.2453 -3.6049 -1.6634
11273SOL    HW235240   2.148   3.589   0.116 -1.2388  2.6790  1.4353
11274SOL     OW35241   0.443   3.478   4.515  0.2117  0.3729 -0.0348
11274SOL    HW135242   0.411   3.440   4.433 -1.5315  0.8745  0.3625
11274SOL    HW235243   0.399   3.427   4.583  1.3012  0.2435  0.5880
11275SOL     OW35244   7.712   0.056   3.205 -0.8449 -0.5610  0.5356
11275SOL    HW135245   7.796   0.088   3.238  0.0944 -0.9545 -1.3204
11275SOL    HW235246   7.708   0.089   3.115 -1.7082 -2.2803 -0.0961
11276SOL     OW35247   2.380   7.795   1.660 -0.0791 -0.1295 -0.2242
11276SOL    HW135248   2.363   7.886   1.636  0.7496 -0.2892 -1.4886
11276SOL    HW235249   2.344   7.787   1.748  1.1510  1.8185  0.5245
11277SOL     OW35250   7.106   2.688   7.773  0.5816 -0.1674  0.7009
11277SOL    HW135251   7.110   2.773   7.815 -2.2795 -0.3609  1.5694
11277SOL    HW235252   7.123   2.625   7.844  0.1103 -0.3882  0.6203
11278SOL     OW35253   3.202   3.644   3.103  0.0170  0.2139 -0.1218
11278SOL    HW135254   3.201   3.701   3.027 -2.9787  0.7869  0.2452
11278SOL    HW235255   3.218   3.556   3.067 -1.4236  0.4608 -1.4612
11279SOL     OW35256   6.715   0.189   7.162  0.1060  0.1123 -0.0022
11279SOL    HW135257   6.661   0.151   7.092 -2.3519 -0.3898  2.0370
11279SOL    HW235258   6.792   0.132   7.167 -0.8094 -1.2307 -0.7195
11280SOL     OW35259   4.021   5.304   3.066  0.0816 -0.2401  0.4448
11280SOL    HW135260   4.005   5.345   3.151  0.2329 -2.1153  1.4367
11280SOL    HW235261   3.942   5.324   3.015 -1.2442 -1.3152  1.9656
11281SOL     OW35262   4.665   5.978   4.894  0.2720  0.6275  0.1096
11281SOL    HW135263   4.616   5.990   4.975  0.2363  0.0251  0.1840
11281SOL    HW235264   4.606   6.008   4.825  0.0691  0.5733  0.2596
11282SOL     OW35265   1.819   4.600   3.431  0.0080 -0.2269 -0.0830
11282SOL    HW135266   1.867   4.568   3.355 -0.9374  1.9866 -1.7368
11282SOL    HW235267   1.727   4.579   3.412 -0.5265  2.3508 -0.7823
11283SOL     OW35268   0.853   1.383   1.435 -0.1432  0.2346  0.6772
11283SOL    HW135269   0.808   1.458   1.474 -0.9538  0.1321 -0.0411
11283SOL    HW235270   0.786   1.337   1.385  0.0159 -1.7600  2.1875
11284SOL     OW35271   1.931   3.768   2.987 -0.6692  0.1037  0.5263
11284SOL    HW135272   1.903   3.794   3.074  0.3900 -1.2112  1.3147
11284SOL    HW235273   2.006   3.824   2.968 -1.0319  0.5364  0.3625
11285SOL     OW35274   2.499   4.667   4.630  0.3266  0.5287 -0.0827
11285SOL    HW135275   2.420   4.693   4.677 -0.6191  0.0546 -1.3573
11285SOL    HW235276   2.495   4.716   4.548  0.1482 -1.1724 -1.1449
11286SOL     OW35277   2.278   0.675   7.399 -0.1671  0.4256  1.1079
11286SOL    HW135278   2.294   0.732   7.323 -1.5455  1.1589  1.3178
11286SOL    HW235279   2.359   0.677   7.449  1.3143 -1.2573 -1.0636
11287SOL     OW35280   1.396   2.606   0.223 -0.2491  0.1454  0.1873
11287SOL    HW135281   1.462   2.547   0.185 -1.0686 -2.0787  2.0208
11287SOL    HW235282   1.443   2.651   0.294  0.2456  1.3928 -0.9002
11288SOL     OW35283   4.787   7.925   7.146 -0.2929 -0.0947 -0.2679
11288SOL    HW135284   4.779   7.902   7.238  0.0094  0.0476 -0.2020
11288SOL    HW235285   4.698   7.921   7.112 -0.6070  1.1726  0.3459
11289SOL     OW35286   3.704   3.875   6.994 -0.0157  0.2772 -0.1909
11289SOL    HW135287   3.783   3.897   7.043  1.3358 -1.1009 -1.6257
11289SOL    HW235288   3.736   3.850   6.907 -2.0998  0.3253 -1.0327
11290SOL     OW35289   1.951   4.247   4.614  0.2493  0.2171  0.0096
11290SOL    HW135290   1.876   4.306   4.603  0.1850  0.3709  1.1458
11290SOL    HW235291   1.987   4.238   4.525 -1.6560 -0.6207 -0.7436
11291SOL     OW35292   7.208   3.637   2.664 -0.0143  0.1412  0.0764
11291SOL    HW135293   7.183   3.645   2.572 -0.8175  0.9291  0.3559
11291SOL    HW235294   7.130   3.664   2.713  0.2169 -0.7835  1.0008
11292SOL     OW35295   0.537   4.714   2.171  0.1481  0.3739 -0.1839
11292SOL    HW135296   0.504   4.636   2.215  0.4939 -0.3017 -1.0964
11292SOL    HW235297   0.552   4.777   2.242 -0.2766 -0.3318  0.5455
11293SOL     OW35298   0.125   4.696   6.681  0.2904  0.0581 -0.1419
11293SOL    HW135299   0.101   4.779   6.639 -0.0969 -1.0577 -2.2552
11293SOL    HW235300   0.084   4.701   6.768 -1.4913  1.2361 -0.9868
11294SOL     OW35301   7.929   0.169   5.221  0.3376 -0.6194 -0.4278
11294SOL    HW135302   8.020   0.143   5.236 -0.0959 -1.5219  0.8378
11294SOL    HW235303   7.894   0.101   5.163 -0.0773 -1.4512  0.7638
11295SOL     OW35304   7.726   0.584   5.316 -0.0265  0.0150 -0.0887
11295SOL    HW135305   7.702   0.533   5.394  2.9913  0.7887  1.5325
11295SOL    HW235306   7.787   0.528   5.269 -1.4043 -0.2167 -1.6593
11296SOL     OW35307   5.038   5.412   3.031  0.1379 -0.1259  0.2787
11296SOL    HW135308   5.070   5.352   3.098  0.6861  0.1445  0.2621
11296SOL    HW235309   5.069   5.375   2.948  0.1689 -0.0135  0.2398
11297SOL     OW35310   2.959   5.319   3.681 -0.1937 -0.1832  0.0281
11297SOL    HW135311   2.989   5.252   3.743  1.8909  0.4910 -0.1655
11297SOL    HW235312   2.871   5.341   3.710 -0.5412 -2.2551  0.7154
11298SOL     OW35313   3.781   0.638   3.232  0.9002  0.1123 -0.0182
11298SOL    HW135314   3.738   0.625   3.317  0.3774  1.6646 -0.0125
11298SOL    HW235315   3.715   0.611   3.168  1.1331 -0.6330  0.0473
11299SOL     OW35316   3.665   7.539   4.392 -0.5522 -0.0895 -0.1799
11299SOL    HW135317   3.669   7.634   4.390  0.6546 -0.1303 -0.9374
11299SOL    HW235318   3.616   7.518   4.471 -0.4751  1.1600  0.2101
11300SOL     OW35319   1.724   6.499   2.447 -0.6285  0.1066  0.4882
11300SOL    HW135320   1.727   6.453   2.531  3.3099 -0.7647  0.0456
11300SOL    HW235321   1.708   6.430   2.382  3.9475 -0.7922 -0.0367
11301SOL     OW35322   1.413   5.523   0.349 -0.2516  0.3349  0.2316
11301SOL    HW135323   1.369   5.454   0.397 -1.2710  1.3810  0.8698
11301SOL    HW235324   1.343   5.565   0.299  0.3956  0.7287 -0.3681
11302SOL     OW35325   3.928   2.030   4.454 -0.0915 -0.1570  0.1577
11302SOL    HW135326   3.882   2.055   4.534  2.3882  0.7321  1.4271
11302SOL    HW235327   3.860   1.997   4.396 -2.1168  0.0205  2.2888
11303SOL     OW35328   2.315   1.623   6.811 -0.6214 -0.3249  0.1234
11303SOL    HW135329   2.267   1.571   6.747 -0.9538 -0.2184  0.2852
11303SOL    HW235330   2.407   1.603   6.794 -0.6107  0.7079 -1.2822
11304SOL     OW35331   0.053   5.038   1.211  0.1909  0.2051  0.0850
11304SOL    HW135332   0.030   5.130   1.202  0.1660  0.1238 -0.8303
11304SOL    HW235333   0.138   5.031   1.167 -0.8499 -0.6203 -1.9441
11305SOL     OW35334   1.121   1.197   4.564 -0.5303  0.1457  0.3807
11305SOL    HW135335   1.117   1.121   4.506  0.3571  1.0025 -0.8361
11305SOL    HW235336   1.127   1.272   4.506 -1.4764  1.1894  1.5564
11306SOL     OW35337   2.358   2.469   4.638 -0.3516 -0.0017 -0.2445
11306SOL    HW135338   2.291   2.512   4.585  0.7163 -1.5535 -3.0861
11306SOL    HW235339   2.310   2.402   4.687 -1.1187 -0.1077 -1.1020
11307SOL     OW35340   6.032   4.875   4.216 -0.4256 -0.5434  0.1165
11307SOL    HW135341   6.017   4.912   4.129  2.5732 -0.6926 -0.6004
11307SOL    HW235342   6.049   4.782   4.200  2.0540 -0.2382  0.4888
11308SOL     OW35343   5.829   2.930   5.740 -0.3629  0.4755 -0.0635
11308SOL    HW135344   5.847   2.960   5.652 -2.5315 -0.1452 -0.7894
11308SOL    HW235345   5.808   2.837   5.730  0.2819  0.1591  1.2483
11309SOL     OW35346   5.990   2.471   4.148 -0.3166  0.0727  0.5634
11309SOL    HW135347   5.938   2.421   4.211  0.0089 -0.9807  0.0143
11309SOL    HW235348   6.022   2.546   4.198 -0.9435 -0.1822  1.3669
11310SOL     OW35349   1.859   7.586   4.248 -0.2986 -0.3482 -0.5532
11310SOL    HW135350   1.775   7.591   4.202 -0.7821  1.3274  0.4476
11310SOL    HW235351   1.865   7.668   4.297  1.2678 -1.0708  0.5420
11311SOL     OW35352   2.257   6.903   4.641 -0.1435  0.0165  0.0828
11311SOL    HW135353   2.189   6.848   4.601 -0.1498 -0.2887  0.4986
11311SOL    HW235354   2.237   6.901   4.735  1.0819 -0.9926  0.3543
11312SOL     OW35355   3.162   5.193   6.441 -0.2370  0.5440  0.2312
11312SOL    HW135356   3.246   5.226   6.410 -1.1519  2.5389 -0.2735
11312SOL    HW235357   3.143   5.246   6.518  0.6244 -2.3680  2.6307
11313SOL     OW35358   1.639   7.176   6.059  0.2542  0.4554 -0.0474
11313SOL    HW135359   1.589   7.101   6.091  0.4478  0.1075 -0.5508
11313SOL    HW235360   1.729   7.158   6.085  0.1987  0.8538  0.4413
11314SOL     OW35361   3.057   0.851   0.135  0.3475  0.1583  0.0172
11314SOL    HW135362   3.146   0.866   0.169  1.1967 -2.3117 -0.9190
11314SOL    HW235363   3.026   0.773   0.182 -0.7075  0.0639 -0.7943
11315SOL     OW35364   1.594   0.750   2.811 -0.2294 -0.0575  0.8596
11315SOL    HW135365   1.689   0.743   2.823  0.2047 -0.6315 -2.0387
11315SOL    HW235366   1.568   0.824   2.866  2.0434  0.5777  1.1724
11316SOL     OW35367   3.038   7.460   1.830 -0.3733 -0.6002  0.0063
11316SOL    HW135368   3.114   7.417   1.871 -2.2341 -1.4675  2.8374
11316SOL    HW235369   3.021   7.536   1.886 -2.1256 -0.9707  0.0249
11317SOL     OW35370   1.252   1.833   7.342 -0.3796  0.2440  0.6474
11317SOL    HW135371   1.248   1.899   7.412  0.3372  0.3101  0.6359
11317SOL    HW235372   1.282   1.753   7.386  1.1081  0.5516  0.2540
11318SOL     OW35373   5.300   0.412   2.509  0.0340 -0.4863  0.2398
11318SOL    HW135374   5.306   0.504   2.484  2.4334 -1.2765 -2.6105
11318SOL    HW235375   5.383   0.394   2.553 -0.4291 -1.3244  0.7957
11319SOL     OW35376   0.973   5.562   6.675 -0.2181  0.4704  0.2447
11319SOL    HW135377   0.881   5.561   6.648  0.2088  2.0596 -1.4822
11319SOL    HW235378   1.014   5.494   6.622 -0.1861  0.5700  0.1412
11320SOL     OW35379   3.723   2.028   7.350  0.0103  0.4716  0.6047
11320SOL    HW135380   3.814   2.047   7.327 -0.3267  1.2942 -0.1346
11320SOL    HW235381   3.720   1.934   7.363  0.7324  0.2875 -0.4570
11321SOL     OW35382   1.038   1.873   6.319 -0.4728  0.1548  0.2514
11321SOL    HW135383   1.115   1.840   6.272  0.4423  1.3771  0.8193
11321SOL    HW235384   1.071   1.948   6.369 -1.9173  0.3410  0.9881
11322SOL     OW35385   1.656   0.181   4.965  0.4173 -0.3844  0.4135
11322SOL    HW135386   1.612   0.259   4.931 -0.3050 -0.6340  0.7573
11322SOL    HW235387   1.615   0.165   5.050  3.0085  0.9418  2.0366
11323SOL     OW35388   5.998   2.187   4.295  0.0066 -0.7842 -0.3416
11323SOL    HW135389   5.926   2.249   4.296  0.6838  0.0310 -0.8383
11323SOL    HW235390   6.063   2.224   4.355  1.8548  0.8235 -3.0878
11324SOL     OW35391   7.340   1.746   5.663  0.4544 -0.1068  0.6106
11324SOL    HW135392   7.418   1.787   5.701  1.3191 -1.0670 -0.0762
11324SOL    HW235393   7.296   1.706   5.738  1.7331 -1.3101  0.7630
11325SOL     OW35394   5.771   7.282   8.054  0.7169 -0.7309  0.6531
11325SOL    HW135395   5.727   7.319   7.977  1.2860  1.8133  1.4365
11325SOL    HW235396   5.704   7.285   8.122  1.2991  0.7893  1.2082
11326SOL     OW35397   6.261   1.015   7.166 -0.0057 -0.0769  0.0672
11326SOL    HW135398   6.352   1.026   7.193  0.4223 -0.2686 -1.2370
11326SOL    HW235399   6.224   0.954   7.230  1.0640 -0.7882  0.0169
11327SOL     OW35400   3.548   3.627   3.813  0.0787  0.0092 -0.6014
11327SOL    HW135401   3.534   3.661   3.725  2.1393  1.6937 -0.3666
11327SOL    HW235402   3.643   3.633   3.826 -0.1054 -0.7463  1.5232
11328SOL     OW35403   0.772   6.812   6.541 -0.3217 -1.0210 -0.5573
11328SOL    HW135404   0.780   6.745   6.473 -0.3800 -0.0599 -1.5299
11328SOL    HW235405   0.678   6.827   6.548 -0.2251  0.8496 -2.2846
11329SOL     OW35406   7.906   5.021   5.577  0.1573  0.4434 -0.1535
11329SOL    HW135407   7.872   4.982   5.657  1.9858 -0.1835  0.3589
11329SOL    HW235408   8.001   5.023   5.589  0.3223  2.7460 -1.2182
11330SOL     OW35409   1.464   4.140   5.431  0.6782  0.1671 -0.0981
11330SOL    HW135410   1.389   4.122   5.374 -1.4060 -0.0502  2.5487
11330SOL    HW235411   1.476   4.235   5.426 -0.2274  0.2913 -0.0431
11331SOL     OW35412   1.688   1.632   7.564  0.2560  0.1996  0.2160
11331SOL    HW135413   1.613   1.573   7.566  0.0843  0.2525 -2.0338
11331SOL    HW235414   1.695   1.665   7.654 -1.1373 -1.3531  0.9505
11332SOL     OW35415   4.313   6.889   4.252 -0.0158  0.5294  0.2068
11332SOL    HW135416   4.286   6.835   4.178 -2.4220  1.2688  0.4636
11332SOL    HW235417   4.393   6.931   4.223  1.1777 -2.0164 -0.5351
11333SOL     OW35418   6.487   1.219   7.609 -0.0662 -0.0805  0.8825
11333SOL    HW135419   6.486   1.124   7.620  0.9734 -0.0563  1.3085
11333SOL    HW235420   6.409   1.250   7.656  0.3647 -0.6180  2.0031
11334SOL     OW35421   6.687   7.464   6.758 -0.4235  0.3742  0.0132
11334SOL    HW135422   6.678   7.373   6.730  1.7260 -0.0015  0.3586
11334SOL    HW235423   6.639   7.469   6.841 -0.4404 -0.4843  0.0604
11335SOL     OW35424   5.370   5.073   1.325 -0.5482  0.0777  0.4415
11335SOL    HW135425   5.393   5.161   1.292  0.4413  0.2936  1.6415
11335SOL    HW235426   5.297   5.046   1.270  0.9095  0.4802 -1.8255
11336SOL     OW35427   3.969   1.162   7.990 -0.3961  0.1394 -0.2669
11336SOL    HW135428   3.954   1.189   7.899  0.0397  0.2072 -0.3202
11336SOL    HW235429   4.011   1.238   8.031 -0.2441 -0.0309 -0.1080
11337SOL     OW35430   2.559   2.929   3.656  0.2493 -0.5649 -0.6013
11337SOL    HW135431   2.481   2.984   3.643 -0.2181 -1.0308  0.1363
11337SOL    HW235432   2.566   2.879   3.575  0.0793 -0.1566 -0.8742
11338SOL     OW35433   7.079   2.393   1.418  0.5075 -0.1127 -0.1338
11338SOL    HW135434   7.105   2.301   1.426 -0.3235 -0.3347  0.1256
11338SOL    HW235435   7.001   2.401   1.472  1.4263  1.1201  1.0660
11339SOL     OW35436   2.434   2.998   2.294 -0.4557 -0.8315 -0.3499
11339SOL    HW135437   2.443   2.920   2.347  0.1940  0.4624  1.5328
11339SOL    HW235438   2.464   3.070   2.350 -2.0214  0.9254 -1.6091
11340SOL     OW35439   1.457   4.631   3.923 -0.1877 -0.0989  0.0967
11340SOL    HW135440   1.452   4.598   3.833 -0.3614  1.0501 -0.3331
11340SOL    HW235441   1.388   4.697   3.928  0.9032  1.0305  0.5678
11341SOL     OW35442   0.950   5.587   5.876  0.0952 -0.2723 -0.1266
11341SOL    HW135443   0.907   5.542   5.949 -0.0441  0.0057 -0.0332
11341SOL    HW235444   0.889   5.578   5.803 -0.7831  1.2737  0.3546
11342SOL     OW35445   4.129   7.721   6.095  0.0816 -0.0044 -0.7824
11342SOL    HW135446   4.105   7.759   6.011  1.0591  0.8874 -0.6728
11342SOL    HW235447   4.185   7.786   6.136 -0.3090 -0.4571  0.5313
11343SOL     OW35448   6.589   2.947   3.562  0.6579  0.1291 -0.0898
11343SOL    HW135449   6.496   2.925   3.573  0.6926  0.2699  0.5562
11343SOL    HW235450   6.595   3.040   3.587  0.8562  0.3212 -0.8208
11344SOL     OW35451   1.522   0.125   4.229 -0.3272  0.1604  0.0631
11344SOL    HW135452   1.559   0.209   4.256 -2.1734  1.4005 -1.0536
11344SOL    HW235453   1.517   0.131   4.134 -0.2704 -1.3461 -0.0561
11345SOL     OW35454   3.423   1.216   2.628  0.4465 -0.5739 -0.3818
11345SOL    HW135455   3.380   1.131   2.619  2.4968 -1.6750 -0.3485
11345SOL    HW235456   3.483   1.221   2.553  1.3950  0.1852  0.3932
11346SOL     OW35457   1.150   3.932   2.658 -0.1733  0.6991  0.0613
11346SOL    HW135458   1.162   3.953   2.751  0.0204 -2.1736  0.8020
11346SOL    HW235459   1.092   4.000   2.625  0.7620  2.5429  1.9338
11347SOL     OW35460   7.816   6.581   6.952  0.3032  0.3204 -0.2039
11347SOL    HW135461   7.797   6.627   7.034  2.1395  1.3680 -0.3224
11347SOL    HW235462   7.828   6.650   6.887 -3.9406 -0.4396 -2.2048
11348SOL     OW35463   4.454   6.531   0.623  0.2460  0.4686 -0.5376
11348SOL    HW135464   4.428   6.452   0.671  3.0990 -0.4416 -0.3038
11348SOL    HW235465   4.546   6.515   0.599  0.7988  3.5779 -0.8342
11349SOL     OW35466   4.812   1.233   6.664 -0.2416 -0.2066  0.5031
11349SOL    HW135467   4.895   1.278   6.646 -0.7276  0.4274 -0.2304
11349SOL    HW235468   4.747   1.302   6.667 -1.1726 -0.8941 -1.6457
11350SOL     OW35469   7.579   7.917   4.461  0.1509 -0.0255 -0.4069
11350SOL    HW135470   7.670   7.908   4.489  0.4004 -0.0882 -1.2003
11350SOL    HW235471   7.537   7.968   4.530  0.6879 -0.3352  0.1600
11351SOL     OW35472   3.686   1.391   4.505 -0.2892  0.2906  0.1278
11351SOL    HW135473   3.590   1.388   4.504 -0.2785 -1.4850 -1.4265
11351SOL    HW235474   3.707   1.484   4.516 -2.1791  0.7495  0.2688
11352SOL     OW35475   7.190   3.671   2.379 -0.3288  0.3955 -0.9832
11352SOL    HW135476   7.136   3.593   2.368  2.5001 -1.4642 -2.6261
11352SOL    HW235477   7.247   3.673   2.302  3.7451  0.6586  1.7148
11353SOL     OW35478   1.460   7.603   1.596  0.8566  0.1002 -0.6269
11353SOL    HW135479   1.439   7.573   1.685  0.4645 -1.6422 -1.2579
11353SOL    HW235480   1.538   7.658   1.607  0.4397  0.4355  0.8620
11354SOL     OW35481   1.849   5.675   7.986  0.4987  0.1779  0.4172
11354SOL    HW135482   1.865   5.741   7.918 -0.9814  0.7812  0.5913
11354SOL    HW235483   1.903   5.703   8.059  0.1099  1.0686  0.3852
11355SOL     OW35484   0.238   5.222   1.380  0.1568  0.2465 -0.6854
11355SOL    HW135485   0.241   5.185   1.468 -2.5541 -0.7167 -0.8926
11355SOL    HW235486   0.329   5.232   1.355  1.0076 -0.6341  1.7348
11356SOL     OW35487   2.893   7.623   2.724  0.5298  0.2099 -0.3646
11356SOL    HW135488   2.877   7.689   2.792 -0.0236 -0.3547  0.0601
11356SOL    HW235489   2.883   7.671   2.642  0.6726  0.7777 -0.0573
11357SOL     OW35490   0.365   3.863   6.025 -0.2322 -0.1825 -0.3832
11357SOL    HW135491   0.435   3.927   6.016 -0.5060  0.5597  2.0197
11357SOL    HW235492   0.285   3.915   6.020 -0.5057 -0.5664 -0.0607
11358SOL     OW35493   7.126   2.125   1.435  0.2992  0.4982  0.7616
11358SOL    HW135494   7.188   2.083   1.375 -1.3882  0.3438 -0.9417
11358SOL    HW235495   7.042   2.083   1.418 -0.8255  2.4241  1.2082
11359SOL     OW35496   6.525   2.399   2.853  0.2261  0.0444 -0.3241
11359SOL    HW135497   6.601   2.456   2.845  0.1699  0.0861 -0.5870
11359SOL    HW235498   6.557   2.322   2.899  1.1332 -1.2136 -2.8824
11360SOL     OW35499   4.857   3.181   4.777  0.4159 -0.1942  0.8994
11360SOL    HW135500   4.833   3.091   4.755 -1.0400  0.5959 -1.0088
11360SOL    HW235501   4.927   3.171   4.842  1.9658 -2.7255 -0.9511
11361SOL     OW35502   8.050   1.656   7.471  0.1105 -0.5873 -0.1838
11361SOL    HW135503   8.084   1.733   7.516  0.0525  0.3751 -1.7417
11361SOL    HW235504   8.029   1.595   7.542  0.8821  0.5096  1.0381
11362SOL     OW35505   8.025   6.835   6.539  0.0312  0.2818 -0.5155
11362SOL    HW135506   8.091   6.770   6.562 -1.1525 -1.2196 -1.2391
11362SOL    HW235507   7.941   6.789   6.545 -0.8636  1.7347 -1.0476
11363SOL     OW35508   1.446   6.492   1.704  0.0219  0.4072  0.1805
11363SOL    HW135509   1.478   6.439   1.778 -0.5405  0.4167  0.4377
11363SOL    HW235510   1.522   6.504   1.648  0.8672  1.7228  1.5312
11364SOL     OW35511   0.467   1.639   1.854  0.4470 -0.3760  0.2446
11364SOL    HW135512   0.392   1.682   1.895  0.8149  0.1458  0.3759
11364SOL    HW235513   0.499   1.578   1.920 -0.7161 -1.6539 -0.3132
11365SOL     OW35514   7.112   4.202   6.844 -0.7638  0.2031  0.7296
11365SOL    HW135515   7.036   4.228   6.897 -0.5961  0.6184  0.7712
11365SOL    HW235516   7.088   4.117   6.808 -0.9668  0.0060  1.3104
11366SOL     OW35517   3.086   1.579   6.569 -0.2260  0.0867 -0.4671
11366SOL    HW135518   3.073   1.667   6.605  0.8603  0.8023 -1.7341
11366SOL    HW235519   3.162   1.587   6.512 -1.5773 -1.0851 -2.5632
11367SOL     OW35520   8.049   0.860   1.448 -0.0690 -0.1945 -0.2858
11367SOL    HW135521   8.143   0.860   1.466 -0.1240  0.0817  0.0193
11367SOL    HW235522   8.041   0.825   1.360  0.1770 -2.1083  0.4050
11368SOL     OW35523   1.669   2.529   7.031 -0.5320  0.6687 -0.2388
11368SOL    HW135524   1.726   2.589   6.984 -0.6610  0.7862 -0.2470
11368SOL    HW235525   1.595   2.583   7.060 -0.1487  0.7415  0.6456
11369SOL     OW35526   5.173   7.299   5.365 -0.2202  0.5348 -0.3425
11369SOL    HW135527   5.136   7.276   5.450 -0.3183  1.1289 -0.2208
11369SOL    HW235528   5.170   7.218   5.315  4.3991 -1.3647  1.7818
11370SOL     OW35529   4.581   0.619   5.826 -0.3078  0.4616 -0.3329
11370SOL    HW135530   4.572   0.531   5.861 -0.4952  0.7390  0.3243
11370SOL    HW235531   4.491   0.653   5.823 -0.1769  0.8407 -0.0346
11371SOL     OW35532   6.437   5.837   3.593  0.1765 -0.0021 -0.5085
11371SOL    HW135533   6.532   5.836   3.585  0.1992  0.7662 -0.3957
11371SOL    HW235534   6.406   5.870   3.509 -0.0568 -1.2410 -0.9397
11372SOL     OW35535   6.135   3.299   2.434 -0.5155 -0.2581 -1.0967
11372SOL    HW135536   6.204   3.259   2.488 -1.2067  0.0117  0.0346
11372SOL    HW235537   6.172   3.383   2.407 -0.5126  0.0349 -0.2169
11373SOL     OW35538   2.998   6.701   6.335 -0.1948  0.4790  0.1481
11373SOL    HW135539   3.032   6.648   6.407  0.9243  0.3538 -0.4378
11373SOL    HW235540   2.912   6.663   6.316 -0.4759  0.4642  1.3459
11374SOL     OW35541   6.865   2.266   1.222 -0.4782 -0.4050 -0.2044
11374SOL    HW135542   6.820   2.329   1.166 -0.2394  0.8949  0.9975
11374SOL    HW235543   6.900   2.319   1.294 -1.0702 -2.0341  1.3610
11375SOL     OW35544   7.320   4.723   6.654  0.0174 -0.2103 -0.2968
11375SOL    HW135545   7.264   4.660   6.698 -0.3569  1.1621  1.2814
11375SOL    HW235546   7.264   4.798   6.637  0.9027  0.4379 -0.4540
11376SOL     OW35547   7.461   5.722   2.329 -0.0327 -0.2331 -0.5492
11376SOL    HW135548   7.465   5.627   2.313  2.5926 -0.1785 -0.6425
11376SOL    HW235549   7.482   5.731   2.422 -1.1320  0.2384 -0.3371
11377SOL     OW35550   1.167   3.969   4.672 -0.3499 -0.1328  0.3889
11377SOL    HW135551   1.193   3.882   4.700  0.9380 -0.8851 -2.7068
11377SOL    HW235552   1.180   3.968   4.577 -2.2455  2.7932 -0.0135
11378SOL     OW35553   4.276   2.635   3.280  0.0649  0.4304  0.0257
11378SOL    HW135554   4.223   2.704   3.240  1.5399  0.9265 -1.1760
11378SOL    HW235555   4.365   2.652   3.249  0.4754 -2.0380 -0.3704
11379SOL     OW35556   1.880   1.385   6.708 -0.2055  0.8792  0.1885
11379SOL    HW135557   1.884   1.480   6.713 -0.6751  0.8232  3.0056
11379SOL    HW235558   1.923   1.354   6.787 -2.3347 -1.1610  0.6646
11380SOL     OW35559   7.613   6.323   2.001  0.3622 -0.2212 -0.3051
11380SOL    HW135560   7.678   6.256   1.981  1.4378  1.1790 -1.7335
11380SOL    HW235561   7.649   6.371   2.076 -0.2776 -1.0357  0.5426
11381SOL     OW35562   3.707   0.102   2.393 -0.3206 -0.0015 -0.4463
11381SOL    HW135563   3.801   0.097   2.410 -0.4651 -0.9045  0.1398
11381SOL    HW235564   3.689   0.196   2.386  0.5305  0.2042  0.0172
11382SOL     OW35565   5.028   6.666   2.615 -0.7286 -0.0680  0.3470
11382SOL    HW135566   5.064   6.622   2.692 -0.6673 -1.5804 -0.5037
11382SOL    HW235567   5.104   6.682   2.559 -0.8482  0.5301  0.3458
11383SOL     OW35568   6.042   2.689   3.163  0.5662  0.2195  0.1899
11383SOL    HW135569   6.121   2.653   3.202  0.7438 -0.7976 -1.0394
11383SOL    HW235570   6.073   2.757   3.103  0.3929  0.7835  0.7233
11384SOL     OW35571   2.689   7.886   6.840 -0.2618 -0.0002  0.1815
11384SOL    HW135572   2.612   7.837   6.869  1.1477 -2.0889  0.6806
11384SOL    HW235573   2.716   7.842   6.759  0.5578  0.5160  0.1576
11385SOL     OW35574   3.616   7.055   7.212  0.1869  0.2803  0.2869
11385SOL    HW135575   3.540   7.050   7.153 -0.7493  2.4869  1.2057
11385SOL    HW235576   3.597   6.991   7.281  0.3504 -0.8856 -0.6955
11386SOL     OW35577   5.768   7.636   3.006  0.1240  0.5956  0.4884
11386SOL    HW135578   5.725   7.551   3.011  1.1310  0.0311 -0.0722
11386SOL    HW235579   5.698   7.700   3.022 -0.9995 -0.2702 -0.7433
11387SOL     OW35580   7.085   3.576   1.769 -0.1749  0.2923 -0.3204
11387SOL    HW135581   7.074   3.501   1.827  1.1556  1.3915  1.4297
11387SOL    HW235582   7.179   3.580   1.751  0.5051  3.7148  2.8357
11388SOL     OW35583   4.737   1.397   1.338  0.7187 -0.5265  0.4669
11388SOL    HW135584   4.646   1.409   1.311  1.4474 -2.0243 -3.1978
11388SOL    HW235585   4.731   1.340   1.415 -1.4368 -0.0353  0.7388
11389SOL     OW35586   5.500   3.980   1.605 -0.0350  0.2629 -0.3676
11389SOL    HW135587   5.577   4.017   1.564 -0.3236 -0.5136 -1.6491
11389SOL    HW235588   5.515   3.886   1.604 -0.6587  0.1501  0.0822
11390SOL     OW35589   5.584   1.038   2.429 -0.8065  0.0076  0.2028
11390SOL    HW135590   5.518   0.981   2.468  0.5418  0.1309  2.8837
11390SOL    HW235591   5.661   0.982   2.418  0.0122  0.8708  1.3274
11391SOL     OW35592   3.212   3.022   0.231 -0.4547 -0.7267  0.1805
11391SOL    HW135593   3.243   3.108   0.200  0.1955 -0.3349  1.8030
11391SOL    HW235594   3.165   2.985   0.157 -0.4598  0.9001 -0.6699
11392SOL     OW35595   5.826   2.079   0.851 -0.7104 -0.1288  0.4232
11392SOL    HW135596   5.915   2.045   0.844 -0.2386  1.3639 -1.8556
11392SOL    HW235597   5.779   2.013   0.901  0.9824 -2.3617 -0.7459
11393SOL     OW35598   3.290   4.613   2.780 -0.1112  0.0761  0.6400
11393SOL    HW135599   3.346   4.685   2.750  0.7728 -0.8566  0.0070
11393SOL    HW235600   3.201   4.641   2.758  0.3858  0.0778 -1.5764
11394SOL     OW35601   6.091   4.877   2.221  0.9342  0.3079  0.3819
11394SOL    HW135602   6.121   4.944   2.284  1.5492  1.6824 -1.3043
11394SOL    HW235603   6.161   4.872   2.156 -0.2637 -0.1110 -0.9169
11395SOL     OW35604   3.458   5.775   4.508 -0.4144  0.2786  0.2513
11395SOL    HW135605   3.394   5.842   4.483  0.0996  1.5041  1.9806
11395SOL    HW235606   3.412   5.692   4.500 -0.8199  0.6866 -2.7982
11396SOL     OW35607   4.954   2.338   3.999 -0.2979  0.6458  0.0264
11396SOL    HW135608   5.008   2.392   3.942  0.1718  0.3124  0.1490
11396SOL    HW235609   4.964   2.249   3.963 -0.7160  0.5745  0.0863
11397SOL     OW35610   4.296   6.778   0.364  0.2006  0.0011  0.0680
11397SOL    HW135611   4.201   6.782   0.376  0.0828  1.5756 -1.1618
11397SOL    HW235612   4.307   6.733   0.280  0.5281  0.3782 -0.0881
11398SOL     OW35613   2.840   7.040   0.786 -0.2232  0.6478 -0.5595
11398SOL    HW135614   2.782   7.043   0.863 -2.8177 -0.8963 -2.2788
11398SOL    HW235615   2.897   6.965   0.803  0.8371  1.7170  0.8273
11399SOL     OW35616   7.227   2.517   7.941  0.8135 -0.0273  0.0461
11399SOL    HW135617   7.272   2.437   7.911  3.2033  0.7699  1.2805
11399SOL    HW235618   7.176   2.488   8.016  1.6195 -0.4253  0.4572
11400SOL     OW35619   4.408   6.087   6.004  0.1555  0.1696 -0.0984
11400SOL    HW135620   4.375   6.061   6.090  1.0129  1.1324  0.5508
11400SOL    HW235621   4.488   6.136   6.023  0.0746  0.8655 -1.4171
11401SOL     OW35622   7.454   4.339   7.324 -0.0189  0.4426  0.0198
11401SOL    HW135623   7.407   4.351   7.406 -1.4945  1.5533 -0.9392
11401SOL    HW235624   7.538   4.384   7.339  0.6982 -1.2605  1.6156
11402SOL     OW35625   7.695   5.067   5.130 -0.3904 -0.7761  0.2506
11402SOL    HW135626   7.738   5.088   5.213  1.3345 -0.9404 -0.5579
11402SOL    HW235627   7.700   5.147   5.079 -0.4193 -1.0004 -0.1100
11403SOL     OW35628   2.211   6.316   0.677 -0.4350  0.0355 -0.0631
11403SOL    HW135629   2.143   6.288   0.739  0.5345 -0.5499  0.7623
11403SOL    HW235630   2.163   6.364   0.610 -1.6428 -0.1657  0.6184
11404SOL     OW35631   3.249   7.727   4.126  0.3439 -0.0479 -0.1641
11404SOL    HW135632   3.232   7.688   4.212 -0.2314  0.4237 -0.0565
11404SOL    HW235633   3.242   7.821   4.141  3.8629  0.3239  0.0829
11405SOL     OW35634   4.428   3.424   1.353 -0.3150  0.0857 -0.2709
11405SOL    HW135635   4.376   3.415   1.274 -1.1806  2.0441  0.0115
11405SOL    HW235636   4.410   3.513   1.384  0.7149 -0.2997  1.6187
11406SOL     OW35637   8.040   1.914   8.014  0.1411  0.1695  0.2099
11406SOL    HW135638   7.959   1.878   7.977  0.0872 -1.3673  1.7033
11406SOL    HW235639   8.110   1.863   7.974  0.3184  0.7956 -0.2943
11407SOL     OW35640   7.138   0.634   7.593 -0.2514 -0.1782 -1.0345
11407SOL    HW135641   7.164   0.653   7.683  0.4184  0.7899 -1.4122
11407SOL    HW235642   7.154   0.540   7.583  0.7323 -0.0866 -0.4812
11408SOL     OW35643   4.617   4.853   2.952  0.4211  0.0611 -0.1222
11408SOL    HW135644   4.530   4.881   2.982  0.5243  0.2293  0.0209
11408SOL    HW235645   4.599   4.784   2.889  0.2462 -1.9896  2.0226
11409SOL     OW35646   4.648   6.473   1.689 -0.4066 -0.1004 -0.1344
11409SOL    HW135647   4.646   6.507   1.600  0.5871  0.1359 -0.0732
11409SOL    HW235648   4.682   6.384   1.681  0.6600  0.2774  0.1088
11410SOL     OW35649   2.256   7.080   1.058 -0.1922  0.2228  0.4599
11410SOL    HW135650   2.191   7.011   1.068  0.9088 -0.7281  1.2452
11410SOL    HW235651   2.308   7.054   0.982 -0.2285  0.5857  0.3043
11411SOL     OW35652   6.155   0.160   0.579  0.1287  0.4258 -0.1220
11411SOL    HW135653   6.117   0.203   0.502 -0.2143  0.7615  0.2313
11411SOL    HW235654   6.122   0.210   0.653 -0.2313 -0.3946  0.2943
11412SOL     OW35655   7.323   0.590   1.249  0.6871  0.4318  0.3765
11412SOL    HW135656   7.274   0.666   1.281 -0.2615 -0.2135  0.4627
11412SOL    HW235657   7.357   0.618   1.164 -0.7322  0.5302 -0.1895
11413SOL     OW35658   3.486   0.226   0.313  0.3718 -0.1588 -0.2941
11413SOL    HW135659   3.520   0.287   0.249 -0.0417 -0.2588 -0.6093
11413SOL    HW235660   3.481   0.142   0.267 -0.3028 -0.1441 -0.2527
11414SOL     OW35661   3.862   0.863   2.690  0.3282 -0.3362 -0.3232
11414SOL    HW135662   3.937   0.821   2.648  2.4181  1.7110  1.1421
11414SOL    HW235663   3.869   0.838   2.782  0.0392  0.9947  0.0728
11415SOL     OW35664   5.186   5.275   0.577 -0.1817 -0.3455  0.9830
11415SOL    HW135665   5.228   5.347   0.529 -2.8997  1.2439  0.7937
11415SOL    HW235666   5.216   5.196   0.531 -0.2660  0.9296 -1.4257
11416SOL     OW35667   3.092   6.546   1.613 -0.0089  0.5130  0.5357
11416SOL    HW135668   3.128   6.540   1.525  0.6291 -1.1978  0.8786
11416SOL    HW235669   3.001   6.573   1.600  0.2355  0.8402 -0.5964
11417SOL     OW35670   5.837   7.596   6.622 -0.4163 -0.2236  0.1610
11417SOL    HW135671   5.818   7.690   6.621  0.3164 -0.0636  0.5237
11417SOL    HW235672   5.895   7.583   6.547 -1.0864 -0.5221 -0.3177
11418SOL     OW35673   4.873   1.962   0.876  0.1120 -0.0919 -0.1731
11418SOL    HW135674   4.962   1.996   0.870  0.3717 -0.9512 -2.1163
11418SOL    HW235675   4.853   1.964   0.969  1.8733  0.8316  0.2396
11419SOL     OW35676   6.854   1.658   0.019  0.1821  0.5805  0.1933
11419SOL    HW135677   6.870   1.567   0.046 -0.9319 -0.0605 -1.2073
11419SOL    HW235678   6.924   1.707   0.062  0.7218 -0.9065  1.1164
11420SOL     OW35679   2.687   1.526   2.363  0.2190 -0.7916  0.2818
11420SOL    HW135680   2.781   1.506   2.371  0.5179  0.4464  0.0319
11420SOL    HW235681   2.654   1.519   2.452  1.1076  1.2990  0.8306
11421SOL     OW35682   4.274   6.076   4.187  0.4012 -0.0374  0.2187
11421SOL    HW135683   4.299   6.028   4.108 -2.7266  1.4468 -1.8936
11421SOL    HW235684   4.352   6.124   4.212  1.5382 -0.6685 -1.8863
11422SOL     OW35685   1.086   0.254   0.505 -0.4306 -0.4399 -0.2608
11422SOL    HW135686   1.129   0.173   0.533 -0.9153 -0.7307 -0.3406
11422SOL    HW235687   1.020   0.271   0.572 -0.2966 -0.0840 -0.2202
11423SOL     OW35688   7.164   0.897   7.482 -0.3922 -0.0449  0.8955
11423SOL    HW135689   7.140   0.924   7.570  0.4589 -0.3779  1.2370
11423SOL    HW235690   7.176   0.803   7.488  1.0902  0.1155  0.7731
11424SOL     OW35691   6.507   0.075   5.567  0.3681  0.5288 -0.0575
11424SOL    HW135692   6.466   0.093   5.652  0.9710  1.0999  0.1215
11424SOL    HW235693   6.434   0.080   5.505  0.0535  0.9284  0.3268
11425SOL     OW35694   4.361   3.362   4.736  0.2182  0.8884  0.1372
11425SOL    HW135695   4.426   3.292   4.740 -1.0892 -0.3146  2.8031
11425SOL    HW235696   4.408   3.441   4.759  0.9718  0.2090  1.0111
11426SOL     OW35697   0.695   7.881   6.127  0.5168  0.3377  0.4700
11426SOL    HW135698   0.653   7.797   6.107  0.4943  0.4566  0.0051
11426SOL    HW235699   0.772   7.857   6.178  1.5256 -0.1152 -1.2074
11427SOL     OW35700   0.739   0.547   6.291  0.0221  0.1190 -0.1960
11427SOL    HW135701   0.834   0.541   6.296  0.1329  1.7667  0.2073
11427SOL    HW235702   0.707   0.485   6.357  0.7236 -2.0070 -1.7511
11428SOL     OW35703   5.728   5.706   2.366  0.3240  0.6087 -0.4468
11428SOL    HW135704   5.759   5.739   2.282 -0.5864 -0.4668 -1.2409
11428SOL    HW235705   5.674   5.630   2.344 -0.6745  0.8296  1.0458
11429SOL     OW35706   1.620   1.883   4.192 -0.2457  0.3084  0.6549
11429SOL    HW135707   1.666   1.880   4.108 -0.8557  1.3211  0.2710
11429SOL    HW235708   1.682   1.844   4.254 -0.0227 -1.0229 -0.3524
11430SOL     OW35709   5.590   2.991   6.599  0.1344 -0.1452  0.4129
11430SOL    HW135710   5.528   2.949   6.658 -0.0859  1.8754  1.7288
11430SOL    HW235711   5.556   3.080   6.587  0.7880 -0.1364 -1.8992
11431SOL     OW35712   1.207   5.672   0.195  0.5407 -0.5715 -0.2905
11431SOL    HW135713   1.151   5.639   0.125  0.9190 -0.4961 -0.6322
11431SOL    HW235714   1.146   5.705   0.261  0.1685 -1.2135 -0.3020
11432SOL     OW35715   1.384   6.678   4.717  0.1128 -0.3183  0.4130
11432SOL    HW135716   1.459   6.659   4.661  0.7050  1.0383  0.6878
11432SOL    HW235717   1.311   6.691   4.657  0.5379  0.2381  0.0057
11433SOL     OW35718   7.789   3.380   0.096 -0.4080  0.1434 -0.5040
11433SOL    HW135719   7.803   3.285   0.096 -0.9872  0.0546 -0.6614
11433SOL    HW235720   7.746   3.398   0.179 -0.6275  0.2176 -0.6332
11434SOL     OW35721   6.125   7.173   1.440  0.0870 -0.4796  0.3704
11434SOL    HW135722   6.109   7.247   1.498 -0.4835 -0.6748  0.4660
11434SOL    HW235723   6.123   7.211   1.352  2.7625  0.1586  0.4997
11435SOL     OW35724   0.123   2.039   7.347 -0.5398 -0.1668 -0.2575
11435SOL    HW135725   0.212   2.003   7.346 -0.1278  0.7914  0.1994
11435SOL    HW235726   0.090   2.018   7.434 -0.1399  0.8986  0.1639
11436SOL     OW35727   5.218   0.602   4.247  0.0934  0.7961 -0.2533
11436SOL    HW135728   5.180   0.582   4.162 -0.0910  0.0574 -0.0103
11436SOL    HW235729   5.306   0.562   4.244 -0.7071 -1.1829  0.6572
11437SOL     OW35730   1.336   5.567   5.211 -0.3093 -0.4073  0.1357
11437SOL    HW135731   1.427   5.543   5.197 -0.0180  0.2466  0.8286
11437SOL    HW235732   1.331   5.591   5.304 -1.2024 -0.5194  0.1297
11438SOL     OW35733   3.776   0.100   7.711 -0.1942  0.2342 -0.1287
11438SOL    HW135734   3.760   0.135   7.623 -0.4800  1.6397  0.4450
11438SOL    HW235735   3.865   0.065   7.708 -0.6624 -0.9293 -1.3192
11439SOL     OW35736   4.633   4.224   0.478 -0.0449 -0.3927 -0.6048
11439SOL    HW135737   4.656   4.215   0.385 -0.7166 -4.1370 -0.5550
11439SOL    HW235738   4.538   4.237   0.477 -0.0041 -0.0838 -0.4455
11440SOL     OW35739   1.224   3.355   1.979 -0.5263 -0.4011 -0.0019
11440SOL    HW135740   1.175   3.316   2.052 -1.7847 -0.9794 -1.1012
11440SOL    HW235741   1.218   3.289   1.909  1.7395 -0.4213 -0.2491
11441SOL     OW35742   3.724   7.366   7.638  0.8657 -0.6219  0.7236
11441SOL    HW135743   3.813   7.362   7.602  0.0700  0.0357 -1.4401
11441SOL    HW235744   3.670   7.321   7.574 -0.9207  2.2747 -0.0070
11442SOL     OW35745   4.315   4.372   1.310  0.5407 -0.2650 -0.3472
11442SOL    HW135746   4.361   4.289   1.317  1.3905  0.2246  0.0750
11442SOL    HW235747   4.299   4.398   1.401  0.4976  0.1408 -0.4687
11443SOL     OW35748   7.982   6.606   6.223  0.0721  0.2204 -0.4430
11443SOL    HW135749   8.070   6.641   6.212  0.0140  1.9610  3.2459
11443SOL    HW235750   7.995   6.512   6.238  1.3019  0.4241 -0.1349
11444SOL     OW35751   1.731   5.732   3.295 -0.1431  0.5201 -0.6892
11444SOL    HW135752   1.639   5.722   3.316  0.5579 -1.4640  1.9554
11444SOL    HW235753   1.769   5.645   3.310  2.4566  1.6741  0.0828
11445SOL     OW35754   6.890   5.365   0.079  0.4026  0.3141  0.2413
11445SOL    HW135755   6.958   5.432   0.088 -0.0792  1.0571 -1.2373
11445SOL    HW235756   6.932   5.294   0.030  0.3621  0.3794  0.1131
11446SOL     OW35757   0.527   2.372   4.479  0.7474  0.5265 -0.0774
11446SOL    HW135758   0.518   2.343   4.570  0.2057 -0.2072 -0.3461
11446SOL    HW235759   0.442   2.351   4.440  1.1049  0.4823 -0.8436
11447SOL     OW35760   0.894   7.759   4.025 -0.1761  0.1155  0.0063
11447SOL    HW135761   0.807   7.727   4.004 -0.4657 -0.1096  1.4177
11447SOL    HW235762   0.901   7.844   3.981  0.1664 -1.2762 -2.8416
11448SOL     OW35763   1.927   1.445   1.468 -0.3231  0.0403 -0.6220
11448SOL    HW135764   2.003   1.502   1.457 -1.3095  1.5034 -0.1606
11448SOL    HW235765   1.877   1.455   1.387 -0.9000  0.4728 -0.2227
11449SOL     OW35766   7.964   5.904   2.371  0.5022  0.4310  0.5425
11449SOL    HW135767   7.946   5.994   2.398  1.2688  0.2743  1.6864
11449SOL    HW235768   8.060   5.899   2.369  0.4586 -0.1324 -0.3386
11450SOL     OW35769   6.156   1.784   2.706 -0.1033 -0.3642  0.7218
11450SOL    HW135770   6.124   1.871   2.730 -0.6975 -0.0712 -0.9992
11450SOL    HW235771   6.108   1.724   2.763 -0.4279  0.3654  1.2346
11451SOL     OW35772   4.941   0.339   1.436 -0.5456 -0.3299 -0.0964
11451SOL    HW135773   4.971   0.249   1.426 -1.1142 -0.6755  1.0411
11451SOL    HW235774   4.846   0.334   1.431 -0.5308  0.5336 -2.1485
11452SOL     OW35775   7.764   6.371   6.552  0.7738 -0.2974  0.3024
11452SOL    HW135776   7.714   6.372   6.470  0.2901  0.3420  0.5950
11452SOL    HW235777   7.697   6.366   6.620  1.1110  0.3575  0.6943
11453SOL     OW35778   6.340   3.710   1.223 -0.1499  0.6383  0.2751
11453SOL    HW135779   6.432   3.684   1.216  0.3757  2.2977  0.5398
11453SOL    HW235780   6.298   3.673   1.146  1.0995  1.2242 -0.7152
11454SOL     OW35781   0.136   0.199   6.722 -0.2067 -0.3454 -0.0022
11454SOL    HW135782   0.120   0.120   6.670 -1.1548 -0.5737  0.6128
11454SOL    HW235783   0.223   0.227   6.696 -0.2176 -1.0795 -0.9038
11455SOL     OW35784   7.887   0.070   0.598  0.1374 -0.2719 -0.1372
11455SOL    HW135785   7.888   0.039   0.688  1.7275 -1.1174 -0.4171
11455SOL    HW235786   7.894  -0.009   0.545 -1.9608  0.1015 -1.0800
11456SOL     OW35787   3.429   7.133   4.994 -0.7402  0.1548  0.3359
11456SOL    HW135788   3.362   7.140   4.926  0.9191  0.7437 -1.3137
11456SOL    HW235789   3.429   7.219   5.036  0.4727  0.9579 -1.1958
11457SOL     OW35790   6.576   0.527   5.557  0.3853 -0.4119  0.2795
11457SOL    HW135791   6.524   0.588   5.609  1.3297 -1.0386  2.0148
11457SOL    HW235792   6.665   0.562   5.561  0.7859 -1.4456  0.5824
11458SOL     OW35793   7.483   7.973   8.053  0.2152 -0.4547  0.0494
11458SOL    HW135794   7.500   8.067   8.059 -0.3160 -0.3804  0.5415
11458SOL    HW235795   7.452   7.949   8.141  2.5746 -1.5616  0.6539
11459SOL     OW35796   7.134   2.553   3.584 -0.8635 -0.1032  0.3596
11459SOL    HW135797   7.154   2.477   3.530  0.4750  0.1753  0.4400
11459SOL    HW235798   7.124   2.625   3.522  0.8008  0.2436  0.4461
11460SOL     OW35799   1.712   2.957   1.030  0.7313 -0.4884  0.1279
11460SOL    HW135800   1.684   2.942   1.121 -0.3837 -3.7076 -0.6180
11460SOL    HW235801   1.631   2.975   0.983  1.3686  1.7211 -0.2200
11461SOL     OW35802   5.683   6.417   1.687 -0.2070 -0.9385 -0.3230
11461SOL    HW135803   5.622   6.469   1.635  0.5517 -0.1628 -0.4599
11461SOL    HW235804   5.737   6.372   1.622  0.7253  0.0114 -0.2310
11462SOL     OW35805   5.389   3.529   7.114  0.0677 -0.4904  0.1122
11462SOL    HW135806   5.427   3.572   7.190  1.6514  1.3846 -1.5958
11462SOL    HW235807   5.298   3.557   7.113  0.5018  1.0308  0.3333
11463SOL     OW35808   5.562   2.600   1.385  0.2658 -0.2904  0.1841
11463SOL    HW135809   5.469   2.606   1.364  0.1775 -1.0070  0.3258
11463SOL    HW235810   5.569   2.520   1.437  1.0460 -0.5406 -0.2922
11464SOL     OW35811   4.619   4.369   3.080 -0.1856  0.2346 -0.7880
11464SOL    HW135812   4.568   4.288   3.074 -1.0469  0.7196 -0.2194
11464SOL    HW235813   4.647   4.373   3.171  0.0344  0.4707 -0.8673
11465SOL     OW35814   5.721   3.656   4.408  0.3419  0.0488  0.2034
11465SOL    HW135815   5.646   3.635   4.464  0.4407 -0.7914  0.0294
11465SOL    HW235816   5.788   3.687   4.469 -0.2752  1.1947  0.3165
11466SOL     OW35817   4.057   0.158   0.253  0.4177  0.2274  0.1808
11466SOL    HW135818   3.986   0.190   0.198  1.2515  1.8156 -0.0265
11466SOL    HW235819   4.097   0.087   0.202 -0.8483 -0.5239  0.2034
11467SOL     OW35820   3.351   1.920   5.394  0.9249  0.1083  0.3626
11467SOL    HW135821   3.288   1.992   5.387 -0.3033 -0.9878 -0.3378
11467SOL    HW235822   3.432   1.956   5.357 -0.2976  0.4642 -2.2066
11468SOL     OW35823   6.549   0.414   7.110 -0.2858  0.3955  0.6813
11468SOL    HW135824   6.615   0.347   7.129 -1.6482 -0.5487  2.3673
11468SOL    HW235825   6.523   0.396   7.020  3.3729  2.3339 -0.9848
11469SOL     OW35826   6.579   1.451   6.150  0.3320  0.0245  0.4319
11469SOL    HW135827   6.638   1.437   6.075  1.0089 -0.5580  1.0559
11469SOL    HW235828   6.547   1.363   6.172  0.0167  0.2136  0.7332
11470SOL     OW35829   1.083   0.354   7.591 -0.2696 -0.0051  0.0431
11470SOL    HW135830   1.064   0.391   7.505  2.5980  1.3901 -0.0929
11470SOL    HW235831   1.039   0.414   7.652  1.2670  1.6014 -0.3359
11471SOL     OW35832   6.693   6.510   7.122 -0.5984  0.2584 -0.2304
11471SOL    HW135833   6.602   6.482   7.120 -0.2482 -0.9547 -0.2020
11471SOL    HW235834   6.694   6.587   7.178 -1.5100 -0.0951  0.2950
11472SOL     OW35835   2.835   3.413   6.065 -0.3986  0.5283  0.4052
11472SOL    HW135836   2.822   3.323   6.095  0.9065  0.1222 -0.2099
11472SOL    HW235837   2.878   3.457   6.138  0.0964  0.3263  0.2329
11473SOL     OW35838   5.197   5.631   7.799 -0.2074 -0.3552 -0.1893
11473SOL    HW135839   5.230   5.715   7.832 -0.8448 -0.0026 -0.4397
11473SOL    HW235840   5.153   5.591   7.874  1.2482 -1.0908  0.3116
11474SOL     OW35841   6.341   7.490   1.723  0.6779  0.1982  0.9175
11474SOL    HW135842   6.386   7.482   1.639  0.0975 -0.1465  0.6329
11474SOL    HW235843   6.375   7.418   1.776  0.3774 -0.1380  0.6594
11475SOL     OW35844   5.852   0.987   1.032  0.2723 -0.1210  0.1430
11475SOL    HW135845   5.765   1.026   1.022  0.9328  1.0280 -1.6899
11475SOL    HW235846   5.901   1.051   1.084  0.4274 -0.0446 -0.0938
11476SOL     OW35847   5.589   5.978   1.660 -0.5591 -0.1954 -0.3254
11476SOL    HW135848   5.540   6.053   1.694 -1.1462 -1.6933  2.4295
11476SOL    HW235849   5.526   5.932   1.604 -0.5716  0.7127 -1.0747
11477SOL     OW35850   4.410   2.570   6.746 -0.0187  0.3188  0.2727
11477SOL    HW135851   4.505   2.576   6.739 -0.2187  1.5788 -2.3060
11477SOL    HW235852   4.392   2.476   6.746  1.1775  0.0741 -0.1761
11478SOL     OW35853   7.471   1.423   4.702  0.8120 -0.7745 -0.0133
11478SOL    HW135854   7.409   1.350   4.693  0.6838 -0.5571 -1.0476
11478SOL    HW235855   7.423   1.499   4.668  1.3650 -0.4480 -0.0624
11479SOL     OW35856   1.452   3.156   4.860  0.0901  0.1776 -0.3971
11479SOL    HW135857   1.536   3.200   4.874  0.4242  0.1239 -2.0483
11479SOL    HW235858   1.476   3.065   4.844 -0.5090 -0.3979  1.7410
11480SOL     OW35859   5.999   2.043   3.042  0.3594 -0.3861 -0.1750
11480SOL    HW135860   5.978   1.950   3.048 -1.6431 -0.1702 -2.4336
11480SOL    HW235861   6.047   2.052   2.959 -0.6562  0.7479 -0.6742
11481SOL     OW35862   3.779   0.708   0.692  0.1292  0.0060 -0.3675
11481SOL    HW135863   3.780   0.751   0.777  1.4779 -1.6995  0.5374
11481SOL    HW235864   3.847   0.751   0.642  1.6799 -1.1531  0.6368
11482SOL     OW35865   2.666   6.353   5.700  0.1591 -0.0883 -0.0612
11482SOL    HW135866   2.720   6.274   5.707  0.7018  0.3175  0.5821
11482SOL    HW235867   2.602   6.344   5.770  0.1765  0.0078 -0.0332
11483SOL     OW35868   4.721   1.541   3.118 -0.2894 -0.2161  0.7265
11483SOL    HW135869   4.660   1.498   3.177  1.1759 -1.4530  1.4101
11483SOL    HW235870   4.791   1.477   3.104  0.8534  1.1194 -0.0291
11484SOL     OW35871   3.895   2.918   6.068  0.4878  0.0552  0.2668
11484SOL    HW135872   3.972   2.873   6.034  0.0501  0.2965 -1.0911
11484SOL    HW235873   3.930   2.996   6.110  0.9869  0.1932 -0.3875
11485SOL     OW35874   7.520   1.181   0.778 -0.5002 -0.3061  0.1231
11485SOL    HW135875   7.535   1.237   0.855  1.1592 -1.6740  0.8664
11485SOL    HW235876   7.425   1.175   0.771 -0.6970  1.0210  1.1948
11486SOL     OW35877   4.403   1.908   5.882  0.0190  0.6328  0.1337
11486SOL    HW135878   4.493   1.905   5.913 -0.0052  0.0854  0.1521
11486SOL    HW235879   4.370   1.819   5.892 -0.2535  0.6317 -0.6743
11487SOL     OW35880   3.630   2.770   4.272  0.3038 -0.6531 -0.4662
11487SOL    HW135881   3.601   2.782   4.362  1.6215  2.0244 -0.2875
11487SOL    HW235882   3.598   2.683   4.247 -0.1501 -1.4553  2.5339
11488SOL     OW35883   6.408   4.891   7.094  0.1630 -0.1147 -0.2779
11488SOL    HW135884   6.323   4.927   7.119 -0.7382 -2.4649  0.3890
11488SOL    HW235885   6.454   4.879   7.178  0.9560  0.6514 -0.5916
11489SOL     OW35886   5.584   7.488   5.429 -0.2880  0.5377  0.9166
11489SOL    HW135887   5.621   7.400   5.435 -4.3529 -1.3288  2.8688
11489SOL    HW235888   5.517   7.481   5.361 -0.2147  2.3750  0.6028
11490SOL     OW35889   1.616   0.668   2.541 -0.0113 -0.5321  0.3097
11490SOL    HW135890   1.691   0.722   2.514 -0.3433  0.2488  0.8853
11490SOL    HW235891   1.600   0.695   2.632  0.2453 -2.1086  0.8524
11491SOL     OW35892   0.136   2.662   3.642  0.3437  0.1721 -0.2658
11491SOL    HW135893   0.098   2.720   3.708  1.8823  0.1472  0.6858
11491SOL    HW235894   0.180   2.594   3.693  0.7454 -0.3940 -1.3417
11492SOL     OW35895   4.056   7.854   0.059 -0.6583  0.1359 -0.0838
11492SOL    HW135896   4.084   7.785  -0.001 -0.9121  0.5090 -0.6409
11492SOL    HW235897   4.128   7.918   0.056 -0.4581 -0.0625  0.3713
11493SOL     OW35898   6.903   1.309   6.289 -0.0060 -0.7070  0.0116
11493SOL    HW135899   6.831   1.283   6.347 -2.0241 -1.2870 -2.5438
11493SOL    HW235900   6.955   1.229   6.279 -0.0932 -0.8178  0.4310
11494SOL     OW35901   6.703   7.691   1.162 -0.0938  0.0306  0.5648
11494SOL    HW135902   6.670   7.613   1.207 -0.5916  0.1284  0.3719
11494SOL    HW235903   6.691   7.762   1.226 -0.8242  0.1743  0.2768
11495SOL     OW35904   0.470   1.895   7.604 -0.0557  0.4201 -0.0958
11495SOL    HW135905   0.410   1.844   7.551 -0.5705  2.0854 -1.1996
11495SOL    HW235906   0.415   1.962   7.645  1.0306  2.2712 -1.4905
11496SOL     OW35907   2.269   3.055   0.003  0.6473 -0.6452 -0.2175
11496SOL    HW135908   2.230   2.982   0.052  0.1421 -0.8754 -0.9536
11496SOL    HW235909   2.354   3.021  -0.026  0.2167 -1.1077 -0.9528
11497SOL     OW35910   5.971   4.985   1.245 -0.3467 -0.2619 -0.0100
11497SOL    HW135911   5.925   4.906   1.272 -1.4700 -0.0916 -1.3391
11497SOL    HW235912   5.987   4.974   1.151  0.7124  0.4963  0.0537
11498SOL     OW35913   2.566   1.794   1.779 -0.6559  0.6289  0.6902
11498SOL    HW135914   2.485   1.840   1.760 -0.4912  1.1398  1.1948
11498SOL    HW235915   2.634   1.861   1.771 -0.3315  0.3055  0.6973
11499SOL     OW35916   7.158   2.517   6.788 -0.4656  0.0339 -0.4706
11499SOL    HW135917   7.190   2.481   6.705  0.5790  0.7151 -0.3846
11499SOL    HW235918   7.124   2.603   6.764 -0.9241 -0.1033 -0.3183
11500SOL     OW35919   0.426   5.482   0.908 -0.3254 -0.1917  0.0695
11500SOL    HW135920   0.436   5.563   0.959 -0.4678 -0.2676  0.2203
11500SOL    HW235921   0.429   5.510   0.817  1.3972 -0.2120  0.0797
11501SOL     OW35922   3.052   6.125   0.621  0.3180 -0.2299  0.3267
11501SOL    HW135923   3.108   6.084   0.687 -1.3282 -1.7219  0.8680
11501SOL    HW235924   3.043   6.058   0.553 -0.8207 -0.0479  0.2799
11502SOL     OW35925   5.389   7.287   3.260  0.0332  0.5476  0.4246
11502SOL    HW135926   5.419   7.362   3.208  0.4130 -0.0747 -0.2811
11502SOL    HW235927   5.299   7.273   3.231  0.1676  0.3467  0.1012
11503SOL     OW35928   1.583   3.734   1.502 -0.2102 -0.3370 -0.0251
11503SOL    HW135929   1.539   3.652   1.480  0.3649 -0.5112 -0.5840
11503SOL    HW235930   1.549   3.797   1.439 -0.3140 -0.2584  0.1098
11504SOL     OW35931   2.946   6.535   3.622 -0.6742 -0.6633  0.2783
11504SOL    HW135932   2.868   6.532   3.679  0.5338  1.6391  2.1981
11504SOL    HW235933   2.972   6.627   3.622  0.3271 -0.8549 -2.8345
11505SOL     OW35934   5.235   2.089   4.824 -0.3300  0.6396  0.3501
11505SOL    HW135935   5.306   2.026   4.828  1.4691  2.5422  0.0381
11505SOL    HW235936   5.167   2.046   4.772  1.7477 -0.2208 -1.8239
11506SOL     OW35937   2.577   6.930   7.231 -0.0088 -0.6343 -0.7476
11506SOL    HW135938   2.630   6.969   7.162  1.3930  1.4188  1.3284
11506SOL    HW235939   2.519   7.000   7.259  0.0008 -1.1562  0.6409
11507SOL     OW35940   2.416   6.776   1.313  0.3882  0.0568 -0.7935
11507SOL    HW135941   2.425   6.692   1.359 -0.4860  0.1557 -0.4263
11507SOL    HW235942   2.385   6.837   1.381 -0.0028  0.4245 -1.2953
11508SOL     OW35943   3.561   3.259   5.641 -0.1524  0.2689 -0.6404
11508SOL    HW135944   3.533   3.172   5.615  0.5663 -0.4238  0.8058
11508SOL    HW235945   3.601   3.296   5.562  1.0449 -1.3627 -0.8427
11509SOL     OW35946   6.835   3.028   0.330 -0.3762 -0.0545  0.4044
11509SOL    HW135947   6.754   3.039   0.281 -0.4036  0.6313  0.5960
11509SOL    HW235948   6.824   3.081   0.409  0.6049  0.8052 -0.0035
11510SOL     OW35949   0.453   6.322   0.886 -0.4812  0.2615  0.3394
11510SOL    HW135950   0.468   6.410   0.852  0.7584  0.3603  1.0838
11510SOL    HW235951   0.434   6.335   0.979  2.8128 -0.3990  1.2181
11511SOL     OW35952   2.598   1.863   6.978  0.4968 -0.2171 -0.5085
11511SOL    HW135953   2.565   1.866   6.888  0.5649 -0.3814 -0.5398
11511SOL    HW235954   2.519   1.861   7.032  0.4540  0.3705 -0.5443
11512SOL     OW35955   6.893   0.254   4.373 -0.6799 -0.0347 -0.0336
11512SOL    HW135956   6.946   0.299   4.438  1.2140 -0.6970 -1.0567
11512SOL    HW235957   6.851   0.182   4.422 -0.9424  0.7086  0.8596
11513SOL     OW35958   0.565   5.562   2.107 -0.1213 -0.1088 -0.3105
11513SOL    HW135959   0.491   5.566   2.168 -0.0457  0.5010 -0.2603
11513SOL    HW235960   0.640   5.596   2.157 -0.1709  0.9109 -0.9109
11514SOL     OW35961   7.807   7.788   0.711  0.3638 -0.0811 -0.1965
11514SOL    HW135962   7.903   7.782   0.714  0.4120  0.6419 -0.1931
11514SOL    HW235963   7.777   7.698   0.724  1.0820 -0.7556 -2.6032
11515SOL     OW35964   5.531   4.531   0.363 -0.1710  0.1252  0.1026
11515SOL    HW135965   5.497   4.469   0.299  1.6026 -0.2532 -0.5158
11515SOL    HW235966   5.619   4.551   0.333  0.5307  0.3295  2.1390
11516SOL     OW35967   3.054   3.878   0.586 -0.1449  0.0340 -0.0779
11516SOL    HW135968   3.046   3.820   0.510 -0.6296 -3.3109  2.2995
11516SOL    HW235969   3.136   3.925   0.570  0.6818 -1.8106 -1.9077
11517SOL     OW35970   2.149   3.570   1.154  0.2694 -0.2903 -0.0185
11517SOL    HW135971   2.120   3.526   1.234 -0.4036 -0.8449 -0.5544
11517SOL    HW235972   2.195   3.503   1.104 -0.5669 -0.3532 -0.7396
11518SOL     OW35973   4.174   0.787   1.443  0.2363 -0.0608  0.0890
11518SOL    HW135974   4.188   0.702   1.402 -0.3648  0.6002 -1.5827
11518SOL    HW235975   4.110   0.830   1.387 -2.4058  0.0783  2.9492
11519SOL     OW35976   2.233   0.098   0.019 -0.3833 -0.1126 -0.1603
11519SOL    HW135977   2.295   0.027   0.039  1.9928  2.1583  1.0935
11519SOL    HW235978   2.198   0.124   0.105  0.1864  1.4176 -0.3727
11520SOL     OW35979   1.730   3.932   0.128 -0.5444  0.0191 -0.1236
11520SOL    HW135980   1.646   3.922   0.082  0.1586 -0.5978 -1.3114
11520SOL    HW235981   1.761   4.019   0.104 -0.7733  0.1968  0.2135
11521SOL     OW35982   1.129   5.367   4.802  0.1263  0.2784 -0.1942
11521SOL    HW135983   1.109   5.458   4.824 -0.9565 -0.2490  1.1808
11521SOL    HW235984   1.214   5.351   4.842 -0.0407  0.4683  0.2475
11522SOL     OW35985   6.334   1.708   6.181  0.0873 -0.5203  0.0628
11522SOL    HW135986   6.299   1.650   6.113  0.1040 -1.7781  1.0854
11522SOL    HW235987   6.269   1.778   6.188 -0.7562 -1.2664 -0.1037
11523SOL     OW35988   6.704   1.788   4.930  0.0378 -0.4702 -0.2747
11523SOL    HW135989   6.731   1.724   4.864 -0.9107 -0.7642 -0.3985
11523SOL    HW235990   6.610   1.800   4.914 -0.1411 -0.2971  0.8055
11524SOL     OW35991   3.037   4.216   3.670 -0.1976  0.5739  0.4053
11524SOL    HW135992   3.099   4.270   3.720 -0.7994 -0.1687  2.0270
11524SOL    HW235993   3.092   4.149   3.629  0.2065  0.5939  0.8978
11525SOL     OW35994   6.581   2.742   7.918  0.6137  0.0124  0.5264
11525SOL    HW135995   6.632   2.681   7.865  0.2103  0.5042 -0.4440
11525SOL    HW235996   6.644   2.776   7.982  1.1786 -0.3811  0.1912
11526SOL     OW35997   4.092   1.481   2.474 -0.1305  0.3030 -0.5954
11526SOL    HW135998   4.016   1.491   2.532  0.5812  1.0388  0.2378
11526SOL    HW235999   4.056   1.493   2.386 -1.3591 -1.5202 -0.4088
11527SOL     OW36000   5.710   4.097   2.214 -0.4198  0.0342  0.5622
11527SOL    HW136001   5.725   4.187   2.245 -0.9288  0.7810 -1.2579
11527SOL    HW236002   5.619   4.079   2.239  0.0588 -0.4992  2.0637
11528SOL     OW36003   4.528   6.283   0.202 -0.0090 -0.2328 -0.3844
11528SOL    HW136004   4.492   6.363   0.240 -1.1128 -0.6826 -0.4629
11528SOL    HW236005   4.573   6.240   0.276  0.7075  0.5001 -0.3718
11529SOL     OW36006   0.552   7.050   5.005  0.2449  0.0831  0.1879
11529SOL    HW136007   0.466   7.010   4.992  1.1218 -2.1958  0.9842
11529SOL    HW236008   0.606   7.013   4.935  1.1694 -0.4250  1.1488
11530SOL     OW36009   3.656   3.347   1.548  0.0783 -0.3956 -0.3029
11530SOL    HW136010   3.603   3.299   1.612 -0.1025  0.4077  0.1705
11530SOL    HW236011   3.599   3.420   1.521 -0.1739 -1.1892 -2.0216
11531SOL     OW36012   1.076   4.755   4.726 -0.3077  0.4722  0.0889
11531SOL    HW136013   1.084   4.850   4.716 -0.8698  0.5116 -0.0022
11531SOL    HW236014   1.147   4.732   4.786 -0.1598  0.9461  0.1068
11532SOL     OW36015   1.511   5.400   7.281 -0.4491 -0.2045 -0.2775
11532SOL    HW136016   1.487   5.374   7.370  0.5662 -1.0023 -0.2220
11532SOL    HW236017   1.428   5.414   7.236 -1.0455  2.7152  1.4818
11533SOL     OW36018   7.262   4.867   0.844 -0.0635 -0.2355  0.8472
11533SOL    HW136019   7.356   4.870   0.863  0.0494  0.4847  0.2192
11533SOL    HW236020   7.232   4.956   0.858 -0.1625  0.1284 -1.3123
11534SOL     OW36021   4.310   0.944   1.921  0.5332  0.6313 -0.8991
11534SOL    HW136022   4.343   0.867   1.968  0.5777  1.3937  0.3441
11534SOL    HW236023   4.217   0.925   1.906  0.4038  0.5954 -0.0616
11535SOL     OW36024   5.639   4.860   6.354 -0.1688  0.0270  0.2150
11535SOL    HW136025   5.546   4.851   6.335 -0.5245  0.5932  1.5348
11535SOL    HW236026   5.653   4.804   6.431  0.8636 -1.0352 -0.7115
11536SOL     OW36027   4.852   5.145   7.074  0.2966 -0.1105  0.1898
11536SOL    HW136028   4.929   5.195   7.047 -0.3529  0.1630 -1.2315
11536SOL    HW236029   4.812   5.199   7.143 -0.0765  1.1013 -0.9290
11537SOL     OW36030   4.921   7.923   1.229  0.1746 -0.4541  0.5080
11537SOL    HW136031   5.005   7.879   1.236  1.0157  0.6109 -1.8340
11537SOL    HW236032   4.856   7.852   1.229  1.3041 -1.5325 -0.7368
11538SOL     OW36033   6.637   7.536   4.602  0.3397 -0.2718  0.3293
11538SOL    HW136034   6.639   7.448   4.638 -0.2994  0.1936  1.5506
11538SOL    HW236035   6.558   7.540   4.549 -0.4105 -0.0073  1.4430
11539SOL     OW36036   5.701   4.562   4.576 -0.2653 -0.2984 -0.3079
11539SOL    HW136037   5.759   4.590   4.505  0.3264  1.6305  0.8594
11539SOL    HW236038   5.716   4.468   4.583  0.9591 -0.2385 -1.5773
11540SOL     OW36039   7.717   3.660   2.272  0.0281  0.0926 -0.1094
11540SOL    HW136040   7.708   3.689   2.181 -1.6740 -0.1161 -0.0430
11540SOL    HW236041   7.758   3.574   2.265 -1.2292 -0.4772 -0.7938
11541SOL     OW36042   5.165   1.989   0.574  0.5785 -0.0472 -0.6167
11541SOL    HW136043   5.139   1.907   0.616 -1.0254  1.0620  0.6823
11541SOL    HW236044   5.206   2.040   0.644  1.0108  0.5194 -1.2616
11542SOL     OW36045   3.323   2.165   7.643  0.1715  0.3827  0.4357
11542SOL    HW136046   3.248   2.218   7.616 -0.5096 -0.0944  1.3623
11542SOL    HW236047   3.372   2.151   7.562 -0.5809  0.9301 -0.1341
11543SOL     OW36048   7.416   6.670   3.326  0.0440 -0.3063  0.1332
11543SOL    HW136049   7.327   6.670   3.360 -0.2325  0.8210 -0.5349
11543SOL    HW236050   7.469   6.708   3.396 -0.0117 -0.8480  0.4770
11544SOL     OW36051   4.681   7.952   2.870  0.2081  0.3676 -0.0480
11544SOL    HW136052   4.608   7.907   2.912  0.7663  0.3100  0.8904
11544SOL    HW236053   4.731   7.883   2.827  0.3225  0.2589  0.2574
11545SOL     OW36054   2.455   3.267   4.813 -0.1601 -0.3401 -0.3188
11545SOL    HW136055   2.450   3.250   4.719  2.8893  0.2541 -0.7030
11545SOL    HW236056   2.395   3.341   4.827 -0.3085 -0.1105 -1.9013
11546SOL     OW36057   6.636   1.899   6.385 -0.0721  0.4791  0.0286
11546SOL    HW136058   6.550   1.936   6.364 -0.0837  0.7118  0.4656
11546SOL    HW236059   6.641   1.903   6.480  1.2160  2.3510 -0.0422
11547SOL     OW36060   2.957   0.541   6.019  0.8688  0.5340  0.6680
11547SOL    HW136061   3.005   0.623   6.007  0.4738  0.5543 -1.0603
11547SOL    HW236062   2.992   0.483   5.952 -0.6351  0.1551  0.1658
11548SOL     OW36063   4.954   7.094   6.244  0.5873 -0.0718 -0.0034
11548SOL    HW136064   4.895   7.030   6.285  1.2308 -0.8858 -0.2993
11548SOL    HW236065   4.999   7.136   6.318  1.5425 -1.3365  0.1782
11549SOL     OW36066   3.470   3.490   2.938 -0.0845  0.0020  0.5540
11549SOL    HW136067   3.545   3.430   2.941  1.3566  1.7517  0.7423
11549SOL    HW236068   3.508   3.577   2.941 -2.0923  0.9830 -0.4405
11550SOL     OW36069   3.984   0.384   7.531 -0.3960  0.1389 -0.4461
11550SOL    HW136070   3.924   0.380   7.605  0.6043 -0.7379  0.3651
11550SOL    HW236071   4.000   0.292   7.508  1.2510  0.3023 -0.0942
11551SOL     OW36072   0.416   7.090   0.472 -0.4243 -0.9370  0.0242
11551SOL    HW136073   0.441   7.037   0.397 -1.6059 -2.3781  0.5905
11551SOL    HW236074   0.377   7.168   0.434 -0.1516 -1.2082 -0.8492
11552SOL     OW36075   3.114   5.511   2.340  0.7021  0.3865 -0.0074
11552SOL    HW136076   3.144   5.499   2.249 -1.4693 -1.0640 -0.6325
11552SOL    HW236077   3.188   5.482   2.393  1.8208  0.7044 -1.3220
11553SOL     OW36078   6.456   2.181   5.614  0.3719  0.1851 -0.1987
11553SOL    HW136079   6.535   2.230   5.635  0.2541 -0.1673  1.1738
11553SOL    HW236080   6.384   2.243   5.629  0.2734 -0.1341  0.6778
11554SOL     OW36081   4.014   3.842   1.380  0.3257 -0.4793  0.0051
11554SOL    HW136082   4.083   3.803   1.325 -1.2665 -0.2559 -2.2809
11554SOL    HW236083   3.997   3.927   1.341 -0.5504 -0.0911  1.1728
11555SOL     OW36084   2.855   3.879   5.655  0.2139 -0.3509 -0.5390
11555SOL    HW136085   2.822   3.811   5.596 -0.8862 -1.4395  1.2701
11555SOL    HW236086   2.848   3.960   5.603 -1.1403 -1.1965 -1.7735
11556SOL     OW36087   2.723   5.893   6.750 -0.3113  0.4059  0.1420
11556SOL    HW136088   2.684   5.846   6.677  0.9268 -2.4263  1.1566
11556SOL    HW236089   2.663   5.879   6.823  0.5266 -0.4936  0.6876
11557SOL     OW36090   2.686   7.400   6.279  0.0405  0.4395 -0.3821
11557SOL    HW136091   2.648   7.374   6.195 -0.6879 -1.3138  0.4417
11557SOL    HW236092   2.731   7.322   6.311 -1.7931  0.2295  1.9731
11558SOL     OW36093   4.528   6.425   1.331  0.0953 -0.5999 -0.0564
11558SOL    HW136094   4.439   6.455   1.317 -0.3395 -1.7126  0.2335
11558SOL    HW236095   4.577   6.504   1.355 -0.4284  0.3145 -1.8346
11559SOL     OW36096   5.405   4.447   1.666  0.5239  0.1950  0.2541
11559SOL    HW136097   5.352   4.404   1.734 -1.0522  0.8327 -0.5321
11559SOL    HW236098   5.481   4.482   1.714  0.4914 -1.1127  1.3370
11560SOL     OW36099   5.570   6.858   5.770  0.0635 -0.0545  0.9910
11560SOL    HW136100   5.497   6.808   5.733 -0.0578  0.8205  0.0155
11560SOL    HW236101   5.642   6.842   5.709  0.3636  0.0123  1.3288
11561SOL     OW36102   6.640   3.600   4.224  0.3711  0.2695  0.5828
11561SOL    HW136103   6.566   3.649   4.189 -0.4871  0.2703  2.2664
11561SOL    HW236104   6.611   3.573   4.311  2.1091 -0.3235  1.0159
11562SOL     OW36105   1.068   1.370   4.121  0.3017  0.6732  0.1073
11562SOL    HW136106   1.029   1.425   4.053 -4.0325 -0.4100  1.4375
11562SOL    HW236107   1.076   1.284   4.081  1.2865  0.8609 -0.1177
11563SOL     OW36108   2.835   6.917   6.040 -0.3068 -0.0808  0.0828
11563SOL    HW136109   2.895   6.843   6.049 -0.5419 -0.1848  0.8370
11563SOL    HW236110   2.767   6.886   5.980 -0.3270 -0.4254  0.2828
11564SOL     OW36111   6.825   7.103   7.776 -0.0087  0.1873 -0.5474
11564SOL    HW136112   6.848   7.116   7.868 -0.1123  0.3241 -0.5395
11564SOL    HW236113   6.872   7.173   7.730 -0.3563  0.4319 -0.5381
11565SOL     OW36114   6.069   1.537   1.452  0.3272  0.1150  0.4043
11565SOL    HW136115   5.992   1.574   1.495  0.0536  0.9075 -0.7184
11565SOL    HW236116   6.128   1.515   1.524  0.0436  1.7496  1.1856
11566SOL     OW36117   6.301   6.487   4.413 -0.3274 -0.2434 -0.3911
11566SOL    HW136118   6.306   6.399   4.449 -1.4256 -0.9789 -1.9667
11566SOL    HW236119   6.388   6.524   4.429  0.2876 -1.7500 -0.1103
11567SOL     OW36120   5.317   3.260   2.394 -0.4835  0.0868 -0.1345
11567SOL    HW136121   5.382   3.330   2.391 -0.3683  0.0528  0.9666
11567SOL    HW236122   5.315   3.234   2.486 -1.7003 -0.2475 -0.2412
11568SOL     OW36123   2.773   2.656   3.608  1.0830 -0.4906 -0.9173
11568SOL    HW136124   2.755   2.653   3.514 -2.0272  0.4560 -0.4814
11568SOL    HW236125   2.825   2.735   3.620 -0.5544  0.7755 -1.6629
11569SOL     OW36126   5.489   7.406   6.445  0.4534 -0.0010  0.7294
11569SOL    HW136127   5.466   7.430   6.355  1.5550  2.5012  1.0469
11569SOL    HW236128   5.542   7.327   6.435 -0.7491 -0.6991 -0.6586
11570SOL     OW36129   4.350   0.832   1.638  0.3362 -0.1699 -0.0883
11570SOL    HW136130   4.292   0.819   1.563 -0.7586 -0.4419  0.7733
11570SOL    HW236131   4.294   0.816   1.714  1.4734 -0.1152  0.7821
11571SOL     OW36132   4.999   1.211   7.238 -0.8125  0.1807  0.4020
11571SOL    HW136133   4.947   1.259   7.174 -0.3762  0.6839  0.4214
11571SOL    HW236134   4.936   1.152   7.280 -1.1707  0.0801 -0.2486
11572SOL     OW36135   4.307   7.711   3.416 -0.0451 -0.3156  0.3079
11572SOL    HW136136   4.366   7.755   3.355 -1.6988 -0.2834 -1.3636
11572SOL    HW236137   4.276   7.781   3.473  0.5615 -0.1140  0.4059
11573SOL     OW36138   2.111   5.473   5.084  0.1496 -0.2439 -0.1611
11573SOL    HW136139   2.092   5.550   5.030  1.4238  0.2746  0.0931
11573SOL    HW236140   2.182   5.429   5.037 -1.3103 -1.9235 -0.9125
11574SOL     OW36141   3.744   6.909   1.850 -0.2937  0.1136 -0.4629
11574SOL    HW136142   3.820   6.908   1.909 -0.4721 -1.9834 -0.2155
11574SOL    HW236143   3.668   6.912   1.909 -0.4547  1.3529 -0.6973
11575SOL     OW36144   4.157   0.984   8.051 -0.0112 -0.7543  0.1957
11575SOL    HW136145   4.199   1.048   8.108 -0.2081  1.6647 -2.1662
11575SOL    HW236146   4.070   1.021   8.035  0.1067 -1.2136 -1.7448
11576SOL     OW36147   7.045   7.732   2.708  0.4758  0.5440  0.1884
11576SOL    HW136148   7.065   7.658   2.652  1.2994  0.4973  0.5276
11576SOL    HW236149   6.959   7.763   2.679  0.0137 -0.6945  0.2143
11577SOL     OW36150   8.049   7.438   3.120  0.5316 -0.0162  0.0592
11577SOL    HW136151   8.056   7.402   3.032  1.2558 -1.6082  0.7250
11577SOL    HW236152   7.963   7.410   3.152  0.2226  0.6543 -0.1697
11578SOL     OW36153   7.000   4.384   5.857 -0.0045  0.1373 -0.2824
11578SOL    HW136154   6.908   4.397   5.879  0.5160  1.1845  1.4995
11578SOL    HW236155   7.019   4.294   5.884 -1.1184 -1.1317 -3.2647
11579SOL     OW36156   1.764   2.507   3.433 -0.2591  0.3287  0.2013
11579SOL    HW136157   1.680   2.548   3.452 -1.1888 -1.2099 -0.4124
11579SOL    HW236158   1.745   2.414   3.428  1.5379 -0.0801  0.2550
11580SOL     OW36159   1.187   6.365   0.708  0.1927  0.7872 -0.4737
11580SOL    HW136160   1.209   6.458   0.706  0.7710  0.6406 -1.1635
11580SOL    HW236161   1.259   6.322   0.663  2.0472 -0.4346  3.2270
11581SOL     OW36162   2.018   0.842   1.245  0.2528  0.9643 -0.5465
11581SOL    HW136163   2.086   0.889   1.197  1.6039 -0.1672  0.1858
11581SOL    HW236164   2.050   0.838   1.335  0.3087 -1.4905 -0.6046
11582SOL     OW36165   2.639   1.999   4.429 -0.3263  0.4597 -0.2808
11582SOL    HW136166   2.613   2.089   4.447 -1.8004  0.1181 -0.5661
11582SOL    HW236167   2.584   1.946   4.487  0.0030 -0.2841 -0.6368
11583SOL     OW36168   6.275   3.321   4.345 -0.1308 -0.4166  0.2051
11583SOL    HW136169   6.230   3.351   4.266  0.7620 -0.4958 -0.3465
11583SOL    HW236170   6.205   3.296   4.405 -0.8602  1.0418 -0.0003
11584SOL     OW36171   4.997   7.767   4.757  0.4963 -0.1603 -0.5807
11584SOL    HW136172   5.001   7.782   4.662  0.8636 -0.8247 -0.6783
11584SOL    HW236173   5.086   7.741   4.780  0.0311 -1.6438 -0.3530
11585SOL     OW36174   2.157   1.869   1.500  0.3743 -0.3300 -0.0180
11585SOL    HW136175   2.206   1.874   1.582  1.1554 -0.3113 -0.4774
11585SOL    HW236176   2.209   1.920   1.438  0.0385 -0.7436 -0.6510
11586SOL     OW36177   2.289   5.737   6.649  0.1176  0.4955  0.0296
11586SOL    HW136178   2.247   5.655   6.673  0.2260  0.9000  1.7336
11586SOL    HW236179   2.253   5.759   6.563  0.4088 -1.5177 -0.6415
11587SOL     OW36180   1.167   7.111   4.379  0.0012 -0.3252  0.0519
11587SOL    HW136181   1.171   7.091   4.285 -0.9874  0.1766 -0.1040
11587SOL    HW236182   1.184   7.205   4.384 -2.2186  0.1312  0.1323
11588SOL     OW36183   0.391   0.131   7.802  0.1175  0.5108  0.0072
11588SOL    HW136184   0.451   0.060   7.824  0.3023 -0.2481 -2.6740
11588SOL    HW236185   0.305   0.099   7.827 -0.2321 -2.0528 -3.7228
11589SOL     OW36186   0.370   4.046   5.170  0.2862 -0.3376 -0.5273
11589SOL    HW136187   0.304   4.079   5.232  0.3390 -0.7731 -0.2330
11589SOL    HW236188   0.390   4.121   5.115  0.2398  0.0632 -0.0137
11590SOL     OW36189   5.723   7.362   6.677  0.3142 -0.1622 -0.3208
11590SOL    HW136190   5.763   7.448   6.663 -1.2458  0.5305 -0.7774
11590SOL    HW236191   5.640   7.382   6.720 -0.2669 -1.4130 -0.8317
11591SOL     OW36192   0.136   0.344   4.663 -0.0101  0.1521  0.0888
11591SOL    HW136193   0.198   0.369   4.731 -0.6120 -1.7831  1.4509
11591SOL    HW236194   0.056   0.320   4.712 -0.2034 -2.0794 -1.1857
11592SOL     OW36195   3.263   5.363   3.888  0.4840 -0.2607  0.2539
11592SOL    HW136196   3.311   5.290   3.849  0.7138 -0.0097  0.0632
11592SOL    HW236197   3.230   5.413   3.813 -1.8740 -1.5713  0.3180
11593SOL     OW36198   5.691   6.419   1.232 -0.2865 -0.7293  0.3746
11593SOL    HW136199   5.729   6.371   1.306  0.3457 -0.8146  0.0001
11593SOL    HW236200   5.735   6.503   1.233 -1.1672 -0.2539  0.8354
11594SOL     OW36201   7.319   0.188   6.145 -0.3413 -0.4928  0.0549
11594SOL    HW136202   7.263   0.208   6.069 -0.1225 -3.3314 -0.9615
11594SOL    HW236203   7.308   0.263   6.203 -2.0796  0.8754 -1.8942
11595SOL     OW36204   7.257   6.684   6.416  0.7585  0.4229 -0.5231
11595SOL    HW136205   7.179   6.717   6.371  1.2183  1.8278 -0.3348
11595SOL    HW236206   7.232   6.684   6.509  1.0077  0.9675 -0.4539
11596SOL     OW36207   1.115   1.622   3.573 -0.1132 -0.3609  0.3049
11596SOL    HW136208   1.153   1.629   3.485 -0.0829 -0.2273  0.3291
11596SOL    HW236209   1.157   1.692   3.623 -1.8103  1.0764 -0.1785
11597SOL     OW36210   1.915   7.231   5.189 -0.1144  0.5999 -0.3489
11597SOL    HW136211   1.928   7.220   5.095  0.9891 -0.3266 -0.1064
11597SOL    HW236212   2.001   7.252   5.223 -0.4283  0.5437  0.5091
11598SOL     OW36213   1.793   3.846   1.188  0.9402 -0.5779 -0.5066
11598SOL    HW136214   1.826   3.832   1.276 -0.1867 -0.2471 -0.0146
11598SOL    HW236215   1.834   3.777   1.136  1.1542 -1.1443  0.3929
11599SOL     OW36216   2.164   0.896   1.006  0.0452 -0.3988 -0.2971
11599SOL    HW136217   2.256   0.899   0.980  0.7975  0.2341  2.1700
11599SOL    HW236218   2.134   0.810   0.978  1.7268 -1.0721 -0.1155
11600SOL     OW36219   6.652   6.062   1.498 -0.3308  0.5173  0.2815
11600SOL    HW136220   6.626   6.144   1.540  0.2815  0.4632  0.7772
11600SOL    HW236221   6.641   6.079   1.404 -1.4582  0.7270  0.4317
11601SOL     OW36222   6.310   2.226   2.653 -0.9134  0.0463 -0.1649
11601SOL    HW136223   6.395   2.262   2.679 -0.6815 -1.8370  2.0179
11601SOL    HW236224   6.329   2.169   2.579  0.0834 -1.5738  1.2560
11602SOL     OW36225   7.678   3.196   1.941 -0.0609 -0.1749  0.0168
11602SOL    HW136226   7.603   3.247   1.971 -0.1141  0.6780 -1.5090
11602SOL    HW236227   7.719   3.165   2.022 -1.7829 -0.2870  0.8918
11603SOL     OW36228   6.521   5.606   4.713  0.0118  0.0461 -0.4830
11603SOL    HW136229   6.583   5.591   4.643 -0.5549  1.6358 -1.3821
11603SOL    HW236230   6.445   5.551   4.690 -0.1074  0.4349 -1.0504
11604SOL     OW36231   0.242   2.988   1.157 -0.3006  0.2245 -0.2750
11604SOL    HW136232   0.238   3.073   1.112 -0.3145  0.5209  0.2764
11604SOL    HW236233   0.188   2.930   1.103  1.3152  0.0333 -1.7807
11605SOL     OW36234   2.555   3.639   3.972  0.6318  0.2694  0.6645
11605SOL    HW136235   2.504   3.662   4.050  0.9616  0.8396  0.7172
11605SOL    HW236236   2.641   3.615   4.007  0.7403  0.3981  0.4831
11606SOL     OW36237   1.546   5.107   7.169 -0.0013  0.1760 -0.2094
11606SOL    HW136238   1.456   5.119   7.140 -0.4843 -0.4713  0.9819
11606SOL    HW236239   1.591   5.188   7.142 -0.7044  0.1265 -1.6002
11607SOL     OW36240   3.070   2.699   5.996  0.3730 -0.4175  0.2611
11607SOL    HW136241   3.087   2.622   6.051  1.0828  0.1087  0.8031
11607SOL    HW236242   3.050   2.768   6.059 -0.7881 -0.2799 -0.2454
11608SOL     OW36243   2.861   3.870   0.922  0.4555  0.1059  0.2221
11608SOL    HW136244   2.877   3.961   0.949  1.1108  0.5722 -1.5649
11608SOL    HW236245   2.948   3.836   0.900  0.0405 -0.4267 -0.6569
11609SOL     OW36246   3.962   0.118   1.140  0.0668 -0.1623 -0.2217
11609SOL    HW136247   3.874   0.092   1.113  0.3043 -0.7828 -0.3863
11609SOL    HW236248   3.969   0.087   1.230 -1.1318  2.8340  1.0648
11610SOL     OW36249   7.151   2.324   4.268  0.0569 -0.1340 -0.8387
11610SOL    HW136250   7.178   2.251   4.213 -0.7109 -0.2442 -1.0738
11610SOL    HW236251   7.228   2.381   4.271  0.6484 -0.9231 -0.6769
11611SOL     OW36252   7.949   4.625   1.908  0.2825  0.4583  0.6615
11611SOL    HW136253   7.860   4.601   1.886  0.9197 -1.7179  0.2037
11611SOL    HW236254   7.954   4.614   2.003  0.7476 -2.3188  0.4163
11612SOL     OW36255   1.118   4.158   3.778 -0.0998  0.2697  0.2703
11612SOL    HW136256   1.069   4.233   3.744  2.1351  0.9072 -1.8349
11612SOL    HW236257   1.178   4.195   3.842  2.3300  0.7717 -2.1023
11613SOL     OW36258   0.190   4.894   0.623 -0.1135  0.5573 -0.5471
11613SOL    HW136259   0.144   4.976   0.642  0.4355  0.7551  0.0015
11613SOL    HW236260   0.226   4.867   0.708  0.6145  0.3144 -0.9226
11614SOL     OW36261   6.330   1.164   4.033 -0.0933 -0.5052 -0.2742
11614SOL    HW136262   6.282   1.127   4.107 -0.0399  0.0317  0.0337
11614SOL    HW236263   6.276   1.237   4.003  0.5452  0.1365  0.1089
11615SOL     OW36264   0.404   3.366   0.833  0.3635 -0.3195 -0.5671
11615SOL    HW136265   0.475   3.335   0.890 -0.5575  0.8412  1.2928
11615SOL    HW236266   0.373   3.446   0.874 -3.1514 -1.6286 -0.3488
11616SOL     OW36267   0.633   4.110   4.746  0.3142  0.3277 -0.1605
11616SOL    HW136268   0.559   4.065   4.705 -1.3915  0.9265  2.0459
11616SOL    HW236269   0.705   4.048   4.741 -1.7605 -2.5260  2.2126
11617SOL     OW36270   7.667   0.769   1.777  0.2595  0.0582 -0.2438
11617SOL    HW136271   7.655   0.694   1.720  2.0048 -1.5378  1.3372
11617SOL    HW236272   7.729   0.825   1.731  2.0627 -1.4631  0.2088
11618SOL     OW36273   3.061   5.288   2.539  0.1451 -0.4865 -1.1159
11618SOL    HW136274   3.051   5.357   2.474 -1.8917  0.4876  0.1544
11618SOL    HW236275   3.018   5.212   2.500 -2.7172  0.5882 -0.2912
11619SOL     OW36276   7.265   5.427   0.284 -0.0512  0.0685  0.3859
11619SOL    HW136277   7.242   5.448   0.374 -0.5206  0.2282  0.2337
11619SOL    HW236278   7.318   5.348   0.290  1.2287  0.9375  0.9212
11620SOL     OW36279   4.116   3.274   3.244 -0.4314 -0.1234  0.5378
11620SOL    HW136280   4.026   3.303   3.228 -0.7088 -1.1493  0.1974
11620SOL    HW236281   4.154   3.264   3.157  0.0136  0.2730  0.6792
11621SOL     OW36282   0.834   3.049   4.089  0.5523  0.0875 -0.1621
11621SOL    HW136283   0.885   3.129   4.081 -0.6230  0.8523 -0.4108
11621SOL    HW236284   0.841   3.008   4.003  0.6582  0.2483 -0.2321
11622SOL     OW36285   6.594   0.790   1.096 -0.0114 -0.5679  0.1672
11622SOL    HW136286   6.587   0.768   1.189 -0.7185 -0.5132  0.1275
11622SOL    HW236287   6.686   0.815   1.085 -0.0691  0.0588  0.9933
11623SOL     OW36288   6.073   3.764   3.892 -0.3045 -0.0573  0.3134
11623SOL    HW136289   5.981   3.763   3.920 -0.3137 -0.9332  0.2928
11623SOL    HW236290   6.116   3.704   3.953  0.1174 -0.2152 -0.1405
11624SOL     OW36291   5.812   1.874   0.386 -0.2550 -0.2951 -0.1103
11624SOL    HW136292   5.722   1.897   0.361 -0.5537 -0.6415  0.6261
11624SOL    HW236293   5.836   1.937   0.453 -0.9231 -1.7962  1.6118
11625SOL     OW36294   1.959   0.106   1.927  0.6725  0.2433 -0.0165
11625SOL    HW136295   1.973   0.148   1.842  0.1980 -0.0109 -0.2217
11625SOL    HW236296   1.878   0.144   1.960 -2.2277 -3.4915 -2.1302
11626SOL     OW36297   0.823   7.409   4.608 -0.2335 -0.4050 -0.6041
11626SOL    HW136298   0.879   7.360   4.668 -0.4103  0.4864  0.3183
11626SOL    HW236299   0.784   7.478   4.662  0.7183  1.3372 -2.0413
11627SOL     OW36300   5.258   5.044   5.199 -0.7067 -0.2815  0.3560
11627SOL    HW136301   5.348   5.033   5.167 -1.6082 -2.0871 -1.8520
11627SOL    HW236302   5.252   5.137   5.221  1.8480 -0.2279  1.1785
11628SOL     OW36303   0.909   5.055   4.569  0.5551 -0.1138 -0.1571
11628SOL    HW136304   0.986   5.111   4.556  1.4953 -1.2886  0.1689
11628SOL    HW236305   0.835   5.115   4.565  1.4635  1.0107 -0.7891
11629SOL     OW36306   2.047   7.197   2.984 -0.0777  0.1123  0.1660
11629SOL    HW136307   2.095   7.146   3.049  0.0917 -1.7404 -1.3340
11629SOL    HW236308   2.111   7.216   2.916 -0.8824 -0.3633 -0.7485
11630SOL     OW36309   6.956   4.367   4.942 -0.1116 -0.3981 -0.5913
11630SOL    HW136310   6.997   4.445   4.903  1.2414 -0.4863  0.5840
11630SOL    HW236311   6.952   4.304   4.870 -1.3232  0.7491 -1.5880
11631SOL     OW36312   1.909   4.949   7.434 -0.0402 -0.4903 -0.3385
11631SOL    HW136313   1.950   4.864   7.453  0.9152 -0.2814 -1.3340
11631SOL    HW236314   1.843   4.929   7.368  0.1621 -0.4691 -0.5490
11632SOL     OW36315   0.432   4.480   0.081 -0.5847  0.2874  0.0106
11632SOL    HW136316   0.367   4.433   0.029  1.2133 -0.1056 -2.0106
11632SOL    HW236317   0.424   4.571   0.052  0.0063  0.1707 -0.5377
11633SOL     OW36318   0.307   3.068   4.433  0.1702 -0.6790 -0.2819
11633SOL    HW136319   0.401   3.076   4.417  0.2529  0.7681  0.6789
11633SOL    HW236320   0.268   3.142   4.386 -0.4627 -1.1072 -0.4437
11634SOL     OW36321   6.236   0.629   1.870  0.2727  0.6247  0.0288
11634SOL    HW136322   6.327   0.655   1.888  0.4965  1.3363 -1.8732
11634SOL    HW236323   6.236   0.604   1.778 -1.0942 -1.2262  0.4699
11635SOL     OW36324   6.866   5.173   5.102 -0.2962 -0.4703  0.5483
11635SOL    HW136325   6.871   5.225   5.022  1.0275 -1.9975 -0.4406
11635SOL    HW236326   6.805   5.102   5.080  1.2363 -1.7804  0.2599
11636SOL     OW36327   2.034   2.603   3.902 -0.5734  0.4038 -1.2590
11636SOL    HW136328   1.978   2.631   3.830  0.3753  0.6259 -1.9283
11636SOL    HW236329   2.081   2.527   3.868  0.1093  0.6978 -0.9929
11637SOL     OW36330   5.407   1.015   5.860  0.1736 -0.1750  0.3763
11637SOL    HW136331   5.477   0.972   5.909 -0.5178 -1.6771  0.0938
11637SOL    HW236332   5.449   1.043   5.778  0.0310 -3.0636 -0.8023
11638SOL     OW36333   2.098   2.994   3.108  0.8681  0.4382 -0.1261
11638SOL    HW136334   2.162   2.940   3.155 -1.1801 -1.3426  0.7966
11638SOL    HW236335   2.073   2.941   3.032 -0.4367  0.4872  0.2423
11639SOL     OW36336   5.317   2.921   6.210  0.1270  0.3623 -0.9109
11639SOL    HW136337   5.356   2.919   6.122 -0.2639 -2.0109 -1.1134
11639SOL    HW236338   5.375   2.866   6.263 -0.2862  0.8034  0.0286
11640SOL     OW36339   1.487   1.120   3.826 -0.1346  0.7756  0.1230
11640SOL    HW136340   1.398   1.097   3.853  0.3212  0.4594  1.3938
11640SOL    HW236341   1.527   1.036   3.803 -0.3520  0.9838 -1.1015
11641SOL     OW36342   1.651   3.627   5.093  0.9156  0.0083 -0.0793
11641SOL    HW136343   1.616   3.686   5.159 -0.8921 -1.3518  0.2873
11641SOL    HW236344   1.591   3.551   5.095  0.3962  0.1427 -3.6465
11642SOL     OW36345   4.445   5.705   4.478 -0.5543  0.3094 -0.6210
11642SOL    HW136346   4.487   5.742   4.400 -0.7513  1.6413 -0.1121
11642SOL    HW236347   4.517   5.662   4.525 -0.3191  0.0328 -1.2123
11643SOL     OW36348   0.654   4.578   7.737  0.1175 -0.1145  0.3490
11643SOL    HW136349   0.681   4.526   7.812  2.9902  0.1984 -0.3435
11643SOL    HW236350   0.729   4.576   7.678 -1.3999  1.0491 -1.7652
11644SOL     OW36351   6.158   4.883   6.291 -0.1296  0.1065 -0.3901
11644SOL    HW136352   6.253   4.882   6.284  0.0629  3.2375  0.2371
11644SOL    HW236353   6.141   4.928   6.374 -2.1867 -0.9988 -0.1440
11645SOL     OW36354   2.228   7.888   7.257  0.2630  0.9777 -0.0903
11645SOL    HW136355   2.281   7.904   7.335  0.8049  1.0524 -0.4696
11645SOL    HW236356   2.254   7.801   7.228 -1.4311  0.0347  0.9792
11646SOL     OW36357   3.400   0.514   2.977  0.2127 -0.3309  0.5533
11646SOL    HW136358   3.415   0.568   2.900 -0.9014 -0.7294  0.0287
11646SOL    HW236359   3.372   0.575   3.045  1.1083  0.0105  0.6204
11647SOL     OW36360   5.994   5.046   5.235 -0.1556  0.2406  0.1262
11647SOL    HW136361   5.918   5.102   5.214  0.5576  1.2601  0.1666
11647SOL    HW236362   5.984   5.026   5.327 -0.6213 -0.0167  0.0243
11648SOL     OW36363   7.031   1.243   0.497  0.0233 -0.8888  0.5621
11648SOL    HW136364   6.984   1.217   0.417  0.1631  1.4719 -0.3667
11648SOL    HW236365   6.964   1.287   0.550  1.0090  2.4446 -0.7413
11649SOL     OW36366   2.755   3.361   7.246 -0.0646 -0.0991  0.1547
11649SOL    HW136367   2.732   3.411   7.168  2.4128 -2.3537 -2.2176
11649SOL    HW236368   2.715   3.275   7.232 -0.0321 -0.3889  1.6694
11650SOL     OW36369   5.862   7.769   2.233 -0.3049  0.6336  0.1956
11650SOL    HW136370   5.886   7.683   2.201  1.6514  1.6076 -1.1225
11650SOL    HW236371   5.934   7.795   2.290 -2.5918 -0.0609  3.8026
11651SOL     OW36372   1.700   5.663   3.634  0.4152 -0.7075 -0.4194
11651SOL    HW136373   1.737   5.738   3.587  0.4038 -0.7397 -0.4798
11651SOL    HW236374   1.734   5.672   3.723 -0.4389 -0.0509 -0.1552
11652SOL     OW36375   2.496   0.849   2.424 -0.0783  0.6231  0.4773
11652SOL    HW136376   2.476   0.760   2.452  0.3838  0.5223  0.5052
11652SOL    HW236377   2.551   0.885   2.494  0.9828  0.4075 -0.2174
11653SOL     OW36378   6.513   1.277   4.813 -0.3341 -0.2256 -0.1201
11653SOL    HW136379   6.482   1.290   4.902  0.8142  1.0540  0.1296
11653SOL    HW236380   6.468   1.345   4.762  0.6227  0.4691 -0.0815
11654SOL     OW36381   7.396   4.230   3.562  0.5311  0.5099  0.0004
11654SOL    HW136382   7.340   4.232   3.485  0.3894 -0.1456  0.0726
11654SOL    HW236383   7.401   4.137   3.585  0.3238  0.7148  0.9487
11655SOL     OW36384   1.861   7.850   2.545  0.6557 -0.2862  0.0192
11655SOL    HW136385   1.948   7.864   2.582  0.6473  0.8200 -0.3536
11655SOL    HW236386   1.814   7.932   2.560  0.2941 -0.1925 -1.4306
11656SOL     OW36387   3.080   7.250   4.096  0.4420  0.1476  0.3849
11656SOL    HW136388   3.130   7.257   4.178  1.0529  1.7394 -0.0835
11656SOL    HW236389   3.018   7.180   4.112  1.3014 -0.3371  1.8173
11657SOL     OW36390   4.684   1.018   7.035  0.1115  0.7011 -0.0499
11657SOL    HW136391   4.722   0.941   7.078 -0.3312 -0.2590 -1.2988
11657SOL    HW236392   4.620   1.052   7.098  0.9347  0.5797  0.8694
11658SOL     OW36393   6.496   4.529   1.509  0.4777  0.0950 -0.1736
11658SOL    HW136394   6.443   4.451   1.524  0.2722  0.3529  0.4605
11658SOL    HW236395   6.586   4.499   1.520  0.4897 -0.3456 -1.2567
11659SOL     OW36396   6.695   4.450   5.601  0.1066  0.2003 -0.1392
11659SOL    HW136397   6.609   4.430   5.564  0.0954 -1.9425  0.8627
11659SOL    HW236398   6.745   4.369   5.589  1.3488  0.7596  1.0354
11660SOL     OW36399   1.141   4.625   4.499  0.2153  0.1286  0.7658
11660SOL    HW136400   1.103   4.688   4.561 -0.0937 -0.0913  0.8051
11660SOL    HW236401   1.120   4.662   4.413 -0.8699 -0.4294  0.7736
11661SOL     OW36402   1.666   4.156   0.330 -0.4856 -0.0350 -0.3123
11661SOL    HW136403   1.588   4.110   0.301 -0.5630  0.0697 -0.2692
11661SOL    HW236404   1.652   4.247   0.302 -0.8209  0.1939  0.5692
11662SOL     OW36405   4.897   6.156   6.851 -0.2359  0.3915  0.4710
11662SOL    HW136406   4.881   6.074   6.898 -0.1415  1.2962  2.1322
11662SOL    HW236407   4.924   6.128   6.763 -1.1764 -1.3216  0.6889
11663SOL     OW36408   2.822   1.801   4.648 -0.1746  0.5994  0.0808
11663SOL    HW136409   2.893   1.804   4.712  0.4953 -1.4913 -0.4861
11663SOL    HW236410   2.865   1.778   4.566 -1.0954  2.6839 -1.0606
11664SOL     OW36411   7.125   6.720   6.680  0.6398 -0.2672  0.6957
11664SOL    HW136412   7.064   6.783   6.720 -1.6148 -2.2197  0.5544
11664SOL    HW236413   7.161   6.671   6.755  1.2304  0.1745  0.7060
11665SOL     OW36414   6.903   0.767   8.054 -0.5851  0.8243  0.3105
11665SOL    HW136415   6.845   0.699   8.018 -0.1071  1.0776 -1.0033
11665SOL    HW236416   6.991   0.728   8.049 -0.2678  1.6297 -0.7480
11666SOL     OW36417   3.204   2.188   2.393 -0.3145  0.1280 -0.0642
11666SOL    HW136418   3.273   2.240   2.434  0.4432 -1.2556  0.4674
11666SOL    HW236419   3.249   2.115   2.351 -1.4661 -1.2097  0.9083
11667SOL     OW36420   6.302   4.584   6.121  0.7590 -0.6170  0.3970
11667SOL    HW136421   6.260   4.526   6.184 -0.9518  0.3765  0.2559
11667SOL    HW236422   6.283   4.672   6.153  3.5092 -0.0639  0.7579
11668SOL     OW36423   5.757   1.270   2.204  0.2460  0.5310 -0.5464
11668SOL    HW136424   5.799   1.203   2.151 -2.4637  0.3396 -2.7258
11668SOL    HW236425   5.740   1.342   2.142 -1.7670  0.9228  0.3688
11669SOL     OW36426   0.444   1.102   4.332 -0.2203 -0.2318  0.0066
11669SOL    HW136427   0.351   1.094   4.310 -0.2829 -1.0305  0.5242
11669SOL    HW236428   0.445   1.123   4.426  0.1189 -0.6400  0.1005
11670SOL     OW36429   2.864   2.858   3.156 -0.0131 -0.0519  0.4271
11670SOL    HW136430   2.783   2.903   3.132 -0.0309 -0.1187  0.3607
11670SOL    HW236431   2.835   2.783   3.207 -0.0662 -0.6505 -0.4517
11671SOL     OW36432   2.540   2.564   7.783  0.0069 -0.2629 -0.1672
11671SOL    HW136433   2.572   2.570   7.693  1.1126  1.2452  0.2869
11671SOL    HW236434   2.596   2.499   7.825  1.1138  0.7935  0.0438
11672SOL     OW36435   5.347   1.500   3.325  0.6511 -0.0217  0.1140
11672SOL    HW136436   5.265   1.524   3.369  0.6107  1.1933 -0.5700
11672SOL    HW236437   5.322   1.489   3.233  0.8964 -1.6665  0.2326
11673SOL     OW36438   7.618   3.291   3.897  0.2486 -0.1839  0.3389
11673SOL    HW136439   7.559   3.356   3.860 -0.0779 -0.8780 -0.3789
11673SOL    HW236440   7.621   3.312   3.991 -1.0338 -0.0687  0.3667
11674SOL     OW36441   2.488   5.571   4.182 -0.1024  0.2317  0.1307
11674SOL    HW136442   2.491   5.657   4.225  1.1310  0.0080  0.5607
11674SOL    HW236443   2.575   5.534   4.198  0.2470 -0.0699 -2.1935
11675SOL     OW36444   2.959   5.121   3.891 -0.3733 -0.2053 -0.3334
11675SOL    HW136445   3.030   5.125   3.956 -2.2072  0.1787  1.7613
11675SOL    HW236446   2.949   5.028   3.872  1.6764 -0.1866 -1.9139
11676SOL     OW36447   1.859   0.984   5.475  0.0437 -0.7230 -0.0594
11676SOL    HW136448   1.785   1.006   5.531  0.2829 -0.4858  0.1706
11676SOL    HW236449   1.840   0.897   5.442 -0.8493 -0.2311 -0.8552
11677SOL     OW36450   6.474   3.726   2.807  0.4740 -0.0713  0.1437
11677SOL    HW136451   6.422   3.676   2.745  1.0414  0.2326 -0.5841
11677SOL    HW236452   6.429   3.714   2.891  0.1306 -1.0930 -0.1780
11678SOL     OW36453   0.675   5.198   4.146 -0.3363 -0.3708 -1.2119
11678SOL    HW136454   0.695   5.242   4.062 -2.3037  2.5440 -0.3104
11678SOL    HW236455   0.601   5.142   4.126 -1.4685  1.0912 -1.2882
11679SOL     OW36456   3.269   3.886   2.479  0.4270 -0.1546  0.5847
11679SOL    HW136457   3.281   3.972   2.520  1.0634  0.2391 -0.4003
11679SOL    HW236458   3.318   3.891   2.397 -1.3593 -0.6964 -0.5713
11680SOL     OW36459   3.784   7.578   1.121  0.0774 -0.0689  0.8317
11680SOL    HW136460   3.849   7.513   1.094  0.5961  0.1919  1.4460
11680SOL    HW236461   3.731   7.592   1.043  2.0490  1.2697 -0.3757
11681SOL     OW36462   2.729   5.506   4.187 -0.2180  0.6308  0.2189
11681SOL    HW136463   2.790   5.532   4.256 -0.8459 -0.2316  1.1195
11681SOL    HW236464   2.785   5.485   4.112  0.5945 -0.1302  1.0184
11682SOL     OW36465   0.003   3.554   3.157 -0.0929  0.1313  0.4401
11682SOL    HW136466   0.097   3.551   3.173 -0.4115  0.6302  2.7880
11682SOL    HW236467  -0.033   3.481   3.207 -1.0553  0.6857  0.5973
11683SOL     OW36468   7.352   1.920   3.095 -0.3570 -0.4911 -0.2316
11683SOL    HW136469   7.446   1.939   3.095 -0.5017  0.3778 -1.4516
11683SOL    HW236470   7.338   1.872   3.013 -1.2323  0.9346 -0.9512
11684SOL     OW36471   2.851   6.492   3.040  0.1943  0.1976 -0.1311
11684SOL    HW136472   2.759   6.496   3.015  0.2443 -1.0488 -0.5526
11684SOL    HW236473   2.851   6.504   3.135 -0.1252  3.3699 -0.4076
11685SOL     OW36474   6.418   5.879   0.131  0.0092 -0.3331  0.0916
11685SOL    HW136475   6.341   5.935   0.144 -0.9330 -1.6929  0.5525
11685SOL    HW236476   6.461   5.916   0.054 -1.9947 -0.4697 -1.1671
11686SOL     OW36477   2.390   7.573   0.139 -0.6673 -0.3347 -0.6114
11686SOL    HW136478   2.368   7.515   0.212 -1.0365 -1.2156 -1.4105
11686SOL    HW236479   2.466   7.533   0.098 -0.5670  0.0698 -0.8276
11687SOL     OW36480   4.148   2.163   2.310 -0.5301 -0.5279 -0.7839
11687SOL    HW136481   4.143   2.236   2.248  0.8236  1.7659  1.5719
11687SOL    HW236482   4.241   2.141   2.313 -0.7739 -1.5528 -0.5925
11688SOL     OW36483   0.287   2.991   7.859  0.5162  0.6305  0.5642
11688SOL    HW136484   0.218   2.988   7.925  1.3904  1.0091  1.5222
11688SOL    HW236485   0.368   3.001   7.909  1.4063 -1.0304 -0.4497
11689SOL     OW36486   2.510   5.615   0.079  0.5525  0.5217 -0.1200
11689SOL    HW136487   2.462   5.695   0.101  0.8657  0.9412 -0.8974
11689SOL    HW236488   2.450   5.544   0.101 -0.6369  1.0428 -1.5035
11690SOL     OW36489   3.903   6.412   6.295 -0.0373  0.5271  0.1865
11690SOL    HW136490   3.892   6.504   6.269  0.5646  0.5073 -0.1599
11690SOL    HW236491   3.831   6.366   6.253 -1.0258  1.0004  1.2813
11691SOL     OW36492   0.987   3.207   3.700 -0.2959  0.7892  0.2379
11691SOL    HW136493   1.058   3.236   3.643 -0.0395 -0.3657 -0.0558
11691SOL    HW236494   0.939   3.287   3.722  0.0171  1.3474 -1.0240
11692SOL     OW36495   1.863   1.745   6.265  0.3547 -0.1103 -0.1650
11692SOL    HW136496   1.775   1.726   6.232  0.7831  1.2924 -2.2729
11692SOL    HW236497   1.851   1.823   6.320  0.2749  0.0295 -0.3797
11693SOL     OW36498   6.072   2.561   4.848 -0.2314  0.1714  0.1232
11693SOL    HW136499   6.025   2.517   4.776  0.1740 -0.1563  0.0522
11693SOL    HW236500   6.162   2.569   4.816 -0.0625  0.0804  0.5714
11694SOL     OW36501   4.625   6.587   4.013 -0.2557  0.8483 -0.0298
11694SOL    HW136502   4.575   6.664   4.042 -0.5996  0.4412  0.4734
11694SOL    HW236503   4.717   6.615   4.017 -0.4578  2.2894 -2.8950
11695SOL     OW36504   7.203   4.265   1.605 -0.1057  0.2690 -0.2782
11695SOL    HW136505   7.295   4.277   1.582 -0.3057  1.8516 -0.3314
11695SOL    HW236506   7.196   4.296   1.695 -0.2136 -1.7622  0.4750
11696SOL     OW36507   5.832   0.643   6.307 -0.6786  0.0970  0.1498
11696SOL    HW136508   5.898   0.583   6.341  0.4560  0.9154 -0.5580
11696SOL    HW236509   5.749   0.595   6.318  0.1177 -1.3432  0.1646
11697SOL     OW36510   6.862   7.918   4.972 -0.3104  0.1276  0.3011
11697SOL    HW136511   6.875   7.843   5.029 -0.0813 -0.8257 -0.9642
11697SOL    HW236512   6.896   7.993   5.022 -0.0174 -0.6899  1.3510
11698SOL     OW36513   1.241   1.222   5.144 -0.1443  0.3070  0.7590
11698SOL    HW136514   1.236   1.132   5.178  0.0714  0.1203  0.2975
11698SOL    HW236515   1.304   1.217   5.073 -0.4669  0.7372  0.4408
11699SOL     OW36516   7.163   3.055   0.797 -0.0842 -0.0237 -0.0355
11699SOL    HW136517   7.223   3.096   0.859 -1.0545  2.1667 -0.4573
11699SOL    HW236518   7.193   3.085   0.711 -1.0750  0.1677 -0.3261
11700SOL     OW36519   0.226   3.222   0.996  0.0690 -0.4393 -0.0931
11700SOL    HW136520   0.239   3.258   1.083  1.6136 -1.7716  0.2659
11700SOL    HW236521   0.289   3.267   0.941 -1.9099  1.4974 -0.9183
11701SOL     OW36522   7.446   6.744   2.434  0.0831 -0.6358  0.9852
11701SOL    HW136523   7.495   6.825   2.448 -0.1796  0.2521 -2.3040
11701SOL    HW236524   7.361   6.773   2.401 -1.2083 -2.2415  2.7119
11702SOL     OW36525   4.774   6.326   4.861 -0.7731  0.0420 -0.1864
11702SOL    HW136526   4.769   6.310   4.767  1.3290  2.9814 -0.9611
11702SOL    HW236527   4.867   6.342   4.877 -1.2096  0.4856  2.2322
11703SOL     OW36528   6.148   1.458   6.956 -0.2097  0.4735 -0.2510
11703SOL    HW136529   6.235   1.499   6.951 -0.1641  0.3370 -0.6139
11703SOL    HW236530   6.109   1.475   6.871  0.4730 -1.7128 -1.0702
11704SOL     OW36531   0.791   6.011   4.931  0.0203 -0.0145  0.8054
11704SOL    HW136532   0.789   5.988   5.024 -0.9135 -0.0932  0.7713
11704SOL    HW236533   0.773   6.105   4.929  1.3579  0.2562  0.7812
11705SOL     OW36534   2.074   2.331   2.733  0.0302  0.0805  0.3006
11705SOL    HW136535   2.091   2.237   2.745  1.5530  0.3132  0.2209
11705SOL    HW236536   2.157   2.365   2.699  0.0454  1.7277  1.8568
11706SOL     OW36537   7.615   2.538   7.056  0.0643  0.1872  0.1326
11706SOL    HW136538   7.597   2.550   7.149 -1.2426 -1.3165  0.1131
11706SOL    HW236539   7.549   2.476   7.026  1.1384 -0.2231 -1.5614
11707SOL     OW36540   0.943   7.431   3.370 -0.0270  0.4175  0.0029
11707SOL    HW136541   1.000   7.380   3.427 -0.6806 -0.3981 -0.0362
11707SOL    HW236542   0.865   7.376   3.360 -1.2183  1.8919  0.8146
11708SOL     OW36543   0.919   6.157   1.726 -0.3481  0.0336  0.9980
11708SOL    HW136544   0.919   6.090   1.794 -0.3243 -1.6243 -0.5366
11708SOL    HW236545   1.012   6.171   1.705 -0.3984 -0.7284  0.1827
11709SOL     OW36546   6.703   2.427   5.513 -0.5341  0.2390 -0.0617
11709SOL    HW136547   6.651   2.502   5.482 -0.6711  0.5567  0.9019
11709SOL    HW236548   6.684   2.422   5.606  1.4153  0.5619  0.3922
11710SOL     OW36549   4.988   6.840   2.176  0.1910 -0.1641 -0.9002
11710SOL    HW136550   5.011   6.747   2.184  0.0441 -0.1076  0.3138
11710SOL    HW236551   4.893   6.842   2.189  0.3587  0.2800  0.4557
11711SOL     OW36552   4.459   4.325   2.818 -0.0677 -0.8428  0.5040
11711SOL    HW136553   4.391   4.365   2.763 -0.3077 -2.7999 -0.7045
11711SOL    HW236554   4.516   4.280   2.757  1.4146 -0.6010  1.6572
11712SOL     OW36555   5.061   3.976   2.326 -0.3517 -0.4474  0.2585
11712SOL    HW136556   5.113   3.983   2.246  0.7658  0.2690  1.0021
11712SOL    HW236557   5.115   3.924   2.385 -0.0504  1.0072  1.3356
11713SOL     OW36558   5.899   0.460   7.869 -0.0113  0.1306 -0.4509
11713SOL    HW136559   5.944   0.445   7.785 -0.2292 -0.2960 -0.4943
11713SOL    HW236560   5.969   0.480   7.931  0.0546  1.9618 -1.0431
11714SOL     OW36561   5.651   0.483   2.268  0.1187  0.1854 -0.1889
11714SOL    HW136562   5.696   0.496   2.184  1.0483 -0.5553  0.1689
11714SOL    HW236563   5.710   0.426   2.317  0.0822  1.4113  1.3640
11715SOL     OW36564   7.297   3.856   6.638 -0.0627  0.5701 -0.7195
11715SOL    HW136565   7.367   3.921   6.627  0.8134 -0.5196 -1.9263
11715SOL    HW236566   7.277   3.828   6.549 -1.7149  0.4963 -0.3485
11716SOL     OW36567   7.504   6.705   1.412  0.0286  0.4159  0.1996
11716SOL    HW136568   7.591   6.742   1.399 -0.2464  0.3645 -2.1612
11716SOL    HW236569   7.490   6.709   1.507  1.6420  2.5850  0.4136
11717SOL     OW36570   7.224   2.647   2.047 -0.2840  0.4228  0.0085
11717SOL    HW136571   7.168   2.720   2.019  0.2794  0.9123  0.1402
11717SOL    HW236572   7.220   2.585   1.975 -1.8575 -0.0570  0.4546
11718SOL     OW36573   2.197   5.013   2.576 -0.4976 -0.1196 -0.5448
11718SOL    HW136574   2.140   4.968   2.514 -0.8377 -0.5697  0.0842
11718SOL    HW236575   2.202   4.954   2.652  0.9777 -0.1826 -0.6698
11719SOL     OW36576   8.006   3.838   5.684  0.0383  0.0232 -0.2178
11719SOL    HW136577   7.982   3.782   5.757 -0.4372  1.0653  0.4431
11719SOL    HW236578   7.928   3.891   5.667  0.4733  0.4864 -0.8291
11720SOL     OW36579   0.739   3.853   1.349 -0.1266  0.0431  0.4385
11720SOL    HW136580   0.811   3.904   1.311 -0.0197  0.2643  0.9187
11720SOL    HW236581   0.706   3.799   1.277 -0.6173  1.2088 -0.2471
11721SOL     OW36582   3.502   0.265   1.187 -0.1360 -0.0549 -0.6994
11721SOL    HW136583   3.596   0.247   1.180 -0.2626 -0.9694 -0.2340
11721SOL    HW236584   3.497   0.357   1.211  0.6847 -0.2195  0.1879
11722SOL     OW36585   7.549   1.609   0.041  0.2037 -0.4850  0.1017
11722SOL    HW136586   7.466   1.579   0.079  0.7402 -0.6793  1.1640
11722SOL    HW236587   7.610   1.611   0.115  1.4432 -1.3934 -0.8524
11723SOL     OW36588   0.538   3.004   4.309  0.1048 -0.3866  0.1865
11723SOL    HW136589   0.562   2.912   4.311 -0.3372 -0.5293  3.0957
11723SOL    HW236590   0.607   3.049   4.357  0.3163  0.8521 -1.1895
11724SOL     OW36591   3.119   5.720   4.198 -0.0402 -0.1041  0.2675
11724SOL    HW136592   3.129   5.795   4.141 -0.2327 -0.1760  0.1389
11724SOL    HW236593   3.201   5.670   4.187  0.9667  1.0980  1.8550
11725SOL     OW36594   1.596   1.499   6.355  0.3259  0.3597 -0.3929
11725SOL    HW136595   1.509   1.458   6.363  0.9105 -0.8011  0.2028
11725SOL    HW236596   1.584   1.567   6.288 -0.7581 -0.5718 -1.1806
11726SOL     OW36597   1.154   4.662   2.299  0.7677 -0.4796 -0.3232
11726SOL    HW136598   1.221   4.695   2.239  0.3453 -0.4745 -0.7956
11726SOL    HW236599   1.118   4.741   2.340 -0.9773 -0.1911 -2.2213
11727SOL     OW36600   2.265   5.731   7.207 -0.3204  0.6701  0.5804
11727SOL    HW136601   2.224   5.813   7.180 -1.5329 -0.0147  0.2463
11727SOL    HW236602   2.269   5.679   7.127  0.1497  0.2801  0.8529
11728SOL     OW36603   0.967   7.258   1.771 -1.0859 -0.3289  0.1671
11728SOL    HW136604   0.976   7.243   1.865 -2.2816 -0.4207  0.2843
11728SOL    HW236605   1.040   7.316   1.749  0.9077 -2.5433  0.5781
11729SOL     OW36606   2.569   0.339   4.983  0.4995 -0.7307 -0.2520
11729SOL    HW136607   2.638   0.312   4.922  1.2351  1.1437 -0.3091
11729SOL    HW236608   2.494   0.361   4.927  0.8984  0.1906 -0.4365
11730SOL     OW36609   7.486   6.485   4.076  0.2811 -0.1243  0.4933
11730SOL    HW136610   7.528   6.400   4.092  0.7283 -0.1294 -0.5805
11730SOL    HW236611   7.458   6.515   4.162  0.5905 -1.1208  0.9559
11731SOL     OW36612   6.091   6.383   6.449  0.2303 -0.1101  0.7410
11731SOL    HW136613   6.157   6.315   6.464  0.1845 -1.0355 -2.5927
11731SOL    HW236614   6.115   6.422   6.365 -2.3651  0.8610  0.3555
11732SOL     OW36615   2.427   7.186   7.822 -0.2397 -0.1112  0.2956
11732SOL    HW136616   2.499   7.181   7.885  0.6498  2.1218 -0.4135
11732SOL    HW236617   2.441   7.112   7.764  0.7952 -0.4039  0.8834
11733SOL     OW36618   5.005   0.791   6.767  0.4601  0.4546  0.4412
11733SOL    HW136619   5.072   0.792   6.836 -0.2878 -1.6199  1.2829
11733SOL    HW236620   4.941   0.856   6.795 -0.2958 -0.9825  2.2820
11734SOL     OW36621   3.907   7.974   1.635  0.2005 -0.2436 -0.1706
11734SOL    HW136622   3.816   7.953   1.612 -0.0566  1.1484 -0.5431
11734SOL    HW236623   3.901   8.057   1.682  1.1600 -0.8340  1.0293
11735SOL     OW36624   5.801   0.972   4.118  0.7135  0.0737  0.6258
11735SOL    HW136625   5.806   0.955   4.212  1.6944 -4.2303 -0.0195
11735SOL    HW236626   5.740   0.906   4.085  0.1641  1.6662 -1.8093
11736SOL     OW36627   7.463   7.602   5.435 -0.2317  0.6253  0.3910
11736SOL    HW136628   7.387   7.632   5.386 -2.9862 -1.7493  2.8291
11736SOL    HW236629   7.442   7.620   5.526  0.7431 -2.6429  1.3978
11737SOL     OW36630   6.243   5.397   5.846  0.4148  0.0495 -0.2957
11737SOL    HW136631   6.195   5.319   5.873  0.6034  0.0429  0.0282
11737SOL    HW236632   6.334   5.370   5.845  0.4272  0.1026 -0.7726
11738SOL     OW36633   2.677   0.483   1.901  0.5579 -0.3043 -0.2988
11738SOL    HW136634   2.601   0.436   1.934  0.3936 -1.2041 -1.8356
11738SOL    HW236635   2.642   0.539   1.831  1.0668  0.5732  0.1249
11739SOL     OW36636   0.647   3.300   3.001  0.5119  0.3159  0.2217
11739SOL    HW136637   0.656   3.207   3.018  0.0343  0.6207  2.3960
11739SOL    HW236638   0.698   3.315   2.921  2.0216 -1.4886  0.7817
11740SOL     OW36639   5.104   7.377   1.285  0.1340  0.0629  0.1299
11740SOL    HW136640   5.121   7.449   1.346 -1.1199  0.9336 -0.4936
11740SOL    HW236641   5.182   7.322   1.290  2.3719  2.8346 -1.2564
11741SOL     OW36642   3.309   7.267   7.834  0.0683  0.1700 -0.2077
11741SOL    HW136643   3.332   7.359   7.817  2.0802 -0.4803 -1.3356
11741SOL    HW236644   3.360   7.244   7.912 -2.8985  0.8273  2.1029
11742SOL     OW36645   5.787   0.390   4.174  0.3219 -0.4727 -0.2276
11742SOL    HW136646   5.757   0.325   4.111 -1.4803  0.5526 -0.5091
11742SOL    HW236647   5.830   0.458   4.121  2.6435 -1.5891  0.1095
11743SOL     OW36648   7.880   4.626   7.046 -0.2481 -0.3354  0.1035
11743SOL    HW136649   7.833   4.621   6.962  0.9928  1.6243 -0.7916
11743SOL    HW236650   7.966   4.588   7.028 -0.1018 -0.2449  0.5905
11744SOL     OW36651   1.040   7.837   7.324  0.4525 -0.1977  1.1014
11744SOL    HW136652   1.107   7.778   7.289  0.0205 -0.8016  1.2661
11744SOL    HW236653   1.000   7.877   7.246  0.2470 -0.6959  0.9414
11745SOL     OW36654   2.092   7.113   6.715  0.6065 -0.7097 -1.1462
11745SOL    HW136655   2.117   7.022   6.700  1.1112 -0.4554 -1.8830
11745SOL    HW236656   2.169   7.154   6.754 -0.2329 -1.0274  0.9871
11746SOL     OW36657   2.477   2.402   5.475  0.2030  0.6127 -0.7772
11746SOL    HW136658   2.515   2.354   5.548 -0.6101  1.0061 -0.0815
11746SOL    HW236659   2.552   2.431   5.423  0.7371 -2.0948 -1.7208
11747SOL     OW36660   6.449   3.398   6.243 -0.4029  0.5480  0.0940
11747SOL    HW136661   6.372   3.349   6.215 -0.2367  0.6309 -0.5176
11747SOL    HW236662   6.513   3.331   6.266 -0.0278  0.4626 -1.1438
11748SOL     OW36663   5.566   5.483   6.165  0.5199  0.0513  0.0432
11748SOL    HW136664   5.646   5.502   6.117  1.3196  0.1449  1.3584
11748SOL    HW236665   5.586   5.405   6.217 -0.4806 -0.3453 -0.1260
11749SOL     OW36666   1.982   1.980   3.495 -0.4196 -0.1459 -0.0666
11749SOL    HW136667   1.971   1.910   3.559 -0.3773 -0.5082 -0.4432
11749SOL    HW236668   2.007   1.934   3.414 -0.0716  0.3312 -0.2359
11750SOL     OW36669   1.873   4.934   6.109 -0.4974  0.4866  0.3349
11750SOL    HW136670   1.905   4.943   6.199 -0.1782  2.3926  0.0827
11750SOL    HW236671   1.888   4.843   6.087 -0.8378 -0.0974  2.3031
11751SOL     OW36672   7.477   1.715   2.529  0.3016  0.3931  0.3156
11751SOL    HW136673   7.572   1.724   2.527  0.3832 -0.5103 -0.6220
11751SOL    HW236674   7.461   1.645   2.592  0.4292 -1.1759 -1.3514
11752SOL     OW36675   7.684   4.246   7.071  0.1628 -0.1938 -0.2227
11752SOL    HW136676   7.597   4.219   7.040  0.1916  0.9809 -1.4433
11752SOL    HW236677   7.739   4.243   6.992  0.5739  1.6319 -0.0441
11753SOL     OW36678   6.395   0.279   2.678  0.3124  0.1774  0.6125
11753SOL    HW136679   6.352   0.213   2.731 -0.4185 -0.7167 -1.0285
11753SOL    HW236680   6.489   0.259   2.686  0.2084  0.0031  1.4626
11754SOL     OW36681   5.619   3.112   1.897 -0.2705  0.3281  0.1069
11754SOL    HW136682   5.628   3.163   1.977  0.2336  0.4549 -0.0271
11754SOL    HW236683   5.572   3.169   1.836 -3.5732 -0.8692  1.2957
11755SOL     OW36684   4.557   5.609   1.330 -0.2941  0.1727  0.4806
11755SOL    HW136685   4.508   5.547   1.276 -1.8616  1.5000  0.2935
11755SOL    HW236686   4.608   5.554   1.390  1.4548 -1.3763 -2.1892
11756SOL     OW36687   1.707   0.553   3.337 -0.4519  0.4045  0.1529
11756SOL    HW136688   1.727   0.464   3.308  1.1923  1.5631 -2.7372
11756SOL    HW236689   1.792   0.593   3.353 -1.1685  1.4606  1.5263
11757SOL     OW36690   5.353   4.061   5.609 -0.4123 -0.1931 -0.1130
11757SOL    HW136691   5.329   3.970   5.627  0.3685 -0.6861 -1.4442
11757SOL    HW236692   5.371   4.098   5.695  0.6128 -1.6901  0.3614
11758SOL     OW36693   3.784   6.829   0.648  0.4236  0.7519 -0.2280
11758SOL    HW136694   3.756   6.751   0.696  0.5090  0.6876 -0.2817
11758SOL    HW236695   3.779   6.900   0.713  3.2200  0.2080  0.7167
11759SOL     OW36696   2.191   7.683   4.480  0.1318  0.4017  0.2241
11759SOL    HW136697   2.201   7.641   4.394 -0.4880  2.4920 -0.9539
11759SOL    HW236698   2.099   7.706   4.485 -0.3589 -1.6863  2.5275
11760SOL     OW36699   0.521   7.056   6.452 -0.1577  0.6260 -0.0448
11760SOL    HW136700   0.544   7.108   6.375  0.1373 -0.7818 -0.9486
11760SOL    HW236701   0.582   7.084   6.520  2.1575 -0.7531 -1.4426
11761SOL     OW36702   5.308   2.957   1.069 -0.0493 -0.3312  0.9527
11761SOL    HW136703   5.304   2.868   1.032 -1.9626  0.0771  0.0834
11761SOL    HW236704   5.239   2.959   1.134 -0.3993  0.6952  0.5607
11762SOL     OW36705   5.224   0.975   4.897 -0.0702 -0.5195 -0.3019
11762SOL    HW136706   5.227   0.885   4.929  0.8710 -0.0579  0.9560
11762SOL    HW236707   5.191   1.026   4.970 -1.0917  0.1206 -1.1701
11763SOL     OW36708   4.785   3.985   2.267 -0.0891  0.2527  0.1464
11763SOL    HW136709   4.869   3.990   2.313  0.0144  1.0670 -0.1158
11763SOL    HW236710   4.779   4.068   2.220 -1.2192  0.3667  0.4732
11764SOL     OW36711   6.173   1.468   2.620  0.1531 -0.3998 -0.0534
11764SOL    HW136712   6.231   1.514   2.681  1.5262 -0.0614 -1.5474
11764SOL    HW236713   6.164   1.381   2.657  0.9706 -0.2054  0.6314
11765SOL     OW36714   1.770   1.969   7.723  0.4118  0.1983 -0.2770
11765SOL    HW136715   1.734   1.899   7.778 -0.0890  1.0065  0.4500
11765SOL    HW236716   1.732   1.954   7.637 -0.0792 -0.1434 -0.0086
11766SOL     OW36717   6.282   7.796   5.212  0.5187  0.1140  0.2756
11766SOL    HW136718   6.341   7.871   5.217  2.2165 -1.2344  3.1529
11766SOL    HW236719   6.313   7.746   5.136 -0.4839  2.0620 -1.5247
11767SOL     OW36720   0.174   3.844   0.703  0.3068  0.2682 -0.5864
11767SOL    HW136721   0.261   3.842   0.664  0.0691 -0.3346 -1.0866
11767SOL    HW236722   0.116   3.807   0.637 -0.2196 -0.0492  0.0375
11768SOL     OW36723   7.932   0.375   2.320 -0.3241  0.1388 -0.3248
11768SOL    HW136724   7.958   0.418   2.401 -1.6478  0.9852 -0.3135
11768SOL    HW236725   7.856   0.425   2.290 -1.2981 -1.5633 -0.8578
11769SOL     OW36726   3.841   7.171   3.374 -0.5622 -0.0499  0.2169
11769SOL    HW136727   3.785   7.206   3.444  0.0420  0.4182  0.4762
11769SOL    HW236728   3.925   7.154   3.416  0.0712  1.0274 -0.5522
11770SOL     OW36729   0.904   2.792   1.984  0.3116  0.0797 -0.4376
11770SOL    HW136730   0.840   2.845   1.936 -0.1659 -0.4257 -0.3643
11770SOL    HW236731   0.876   2.799   2.076  0.1447 -0.4287 -0.4456
11771SOL     OW36732   5.023   2.529   2.143  0.0035 -0.1480  0.2758
11771SOL    HW136733   5.056   2.518   2.232  0.3446 -0.7958  0.0686
11771SOL    HW236734   5.101   2.547   2.090 -0.2403  0.6388  0.1645
11772SOL     OW36735   6.496   7.170   0.654 -0.1226 -0.3690 -0.0671
11772SOL    HW136736   6.555   7.096   0.668  1.2812  0.6419 -0.4344
11772SOL    HW236737   6.427   7.157   0.718  0.3632 -1.7164  0.2289
11773SOL     OW36738   2.360   0.965   6.748  0.1794 -0.2612  0.2978
11773SOL    HW136739   2.270   0.970   6.777  0.0294  0.5994 -0.2906
11773SOL    HW236740   2.360   1.005   6.661  0.4767 -3.2803 -1.2557
11774SOL     OW36741   6.869   1.388   0.658 -0.2652 -0.1075  0.0931
11774SOL    HW136742   6.930   1.425   0.722 -0.4379 -0.4034  0.4271
11774SOL    HW236743   6.816   1.326   0.707  0.1652 -0.9763 -0.5020
11775SOL     OW36744   5.702   7.580   0.785  0.0658 -0.0702 -0.4714
11775SOL    HW136745   5.794   7.588   0.812 -0.8051  1.3124  2.6506
11775SOL    HW236746   5.671   7.671   0.778 -1.1174 -0.5104 -1.3174
11776SOL     OW36747   7.470   5.852   3.707  0.1127 -0.0393  0.3463
11776SOL    HW136748   7.529   5.830   3.779  0.5034 -1.4156 -0.3391
11776SOL    HW236749   7.384   5.819   3.735  0.1462 -0.0736  0.4079
11777SOL     OW36750   4.844   3.546   0.421  0.3460  0.7811 -0.1470
11777SOL    HW136751   4.791   3.467   0.413  0.9549  0.1982  1.2066
11777SOL    HW236752   4.892   3.534   0.503  0.6950  2.4122 -0.0810
11778SOL     OW36753   4.670   3.033   7.978 -0.5492  0.0189  0.0138
11778SOL    HW136754   4.672   3.115   7.929  2.0182 -0.4281 -0.7810
11778SOL    HW236755   4.691   3.058   8.068 -2.3563  0.4892  0.3420
11779SOL     OW36756   4.085   2.131   1.958 -0.1796 -0.3593  0.4179
11779SOL    HW136757   4.014   2.069   1.943 -0.4311  0.2654 -1.1028
11779SOL    HW236758   4.045   2.217   1.946  0.8676 -0.0076 -0.7379
11780SOL     OW36759   6.381   5.957   7.730  0.1420  0.2224 -0.8509
11780SOL    HW136760   6.325   5.976   7.806  1.5396 -1.4752  0.6979
11780SOL    HW236761   6.432   6.038   7.717 -0.4598  0.7015 -0.3030
11781SOL     OW36762   6.384   6.457   1.896 -0.3720  0.2630 -0.2643
11781SOL    HW136763   6.360   6.523   1.832  1.3585  2.1474  0.9187
11781SOL    HW236764   6.472   6.481   1.925  0.1326 -2.2684  0.6236
11782SOL     OW36765   2.043   3.337   2.754  0.1504  0.3966 -0.1539
11782SOL    HW136766   2.021   3.322   2.846  4.4211 -1.7961  0.7387
11782SOL    HW236767   2.012   3.426   2.737 -0.8518  0.8903  3.3506
11783SOL     OW36768   2.736   3.341   5.346 -0.2693  0.4313  0.1541
11783SOL    HW136769   2.709   3.299   5.427 -0.2175 -0.6836 -0.3881
11783SOL    HW236770   2.753   3.432   5.370 -0.5294  0.1777  1.3249
11784SOL     OW36771   5.136   4.261   4.728 -0.3104  0.0773 -0.6566
11784SOL    HW136772   5.185   4.200   4.673  1.9718  0.9548  0.2710
11784SOL    HW236773   5.128   4.341   4.674  1.4263  0.7417  0.0121
11785SOL     OW36774   3.215   3.798   2.900  0.2855 -0.3937  0.4442
11785SOL    HW136775   3.147   3.807   2.833  0.3784 -0.2437  0.3688
11785SOL    HW236776   3.253   3.886   2.907  0.1718 -0.3706  0.8046
11786SOL     OW36777   0.312   2.761   1.430 -0.1954  0.1478  0.4202
11786SOL    HW136778   0.305   2.714   1.347 -0.5102  1.1850 -0.1547
11786SOL    HW236779   0.388   2.819   1.419 -0.3419  0.4178  0.7890
11787SOL     OW36780   2.149   1.057   4.939 -0.0711  0.4551 -0.1639
11787SOL    HW136781   2.218   0.991   4.932 -0.3141  0.0166  1.1580
11787SOL    HW236782   2.067   1.007   4.939 -0.2057  0.3313  3.7362
11788SOL     OW36783   3.437   6.937   7.804 -0.1080 -0.4369  0.4275
11788SOL    HW136784   3.530   6.958   7.796 -0.3268  0.7198  0.7901
11788SOL    HW236785   3.398   6.977   7.726 -0.0254 -2.8207 -0.9294
11789SOL     OW36786   4.849   7.450   2.291 -0.0987 -0.0794  0.0164
11789SOL    HW136787   4.769   7.501   2.291 -0.1173 -0.0968 -0.7771
11789SOL    HW236788   4.848   7.403   2.375  0.6195  2.2661  1.4315
11790SOL     OW36789   6.844   7.811   6.515  0.2400  0.0910  0.0663
11790SOL    HW136790   6.868   7.787   6.425  0.0068 -0.2682  0.1012
11790SOL    HW236791   6.815   7.902   6.508 -0.4584 -0.1589 -0.3418
11791SOL     OW36792   6.286   6.446   1.275  0.0569 -1.0164 -0.3722
11791SOL    HW136793   6.308   6.356   1.301  0.3227 -0.9061 -0.2106
11791SOL    HW236794   6.362   6.475   1.224  0.3199 -0.6095  0.2379
11792SOL     OW36795   6.147   1.173   1.360 -0.3043 -0.0103  0.0881
11792SOL    HW136796   6.075   1.194   1.300 -0.2562  0.3067  0.1396
11792SOL    HW236797   6.111   1.107   1.418 -0.3466 -0.3383 -0.3049
11793SOL     OW36798   3.288   6.083   3.255 -0.1708  0.3990  0.0410
11793SOL    HW136799   3.200   6.050   3.272  0.8761 -1.4752  2.2903
11793SOL    HW236800   3.314   6.128   3.335  1.0793  0.5257 -0.4052
11794SOL     OW36801   7.514   4.902   0.985  0.1516  0.6985 -0.2953
11794SOL    HW136802   7.479   4.964   1.049  1.1394 -0.1410  1.1046
11794SOL    HW236803   7.525   4.821   1.034  0.2806 -0.1777 -1.7257
11795SOL     OW36804   0.547   0.954   1.055 -0.3849  0.4728 -0.0128
11795SOL    HW136805   0.552   0.994   1.141 -1.2818  0.2450  0.1592
11795SOL    HW236806   0.634   0.966   1.017  0.2669 -0.1334  1.2385
11796SOL     OW36807   2.142   0.301   4.672 -0.6542  0.7699 -0.0333
11796SOL    HW136808   2.067   0.242   4.667 -0.2803  0.3076 -0.3275
11796SOL    HW236809   2.146   0.328   4.764 -0.8646  0.3783  0.0917
11797SOL     OW36810   0.735   1.453   5.668 -0.1233 -0.0612 -0.6882
11797SOL    HW136811   0.660   1.484   5.719 -1.7947 -2.0739 -1.7682
11797SOL    HW236812   0.741   1.513   5.594 -0.1890  0.5492 -0.2003
11798SOL     OW36813   0.151   3.149   7.441 -0.2612  0.3040 -0.0812
11798SOL    HW136814   0.096   3.225   7.424  0.9825  1.4008  0.5550
11798SOL    HW236815   0.157   3.145   7.537  0.7300  0.1979 -0.1381
11799SOL     OW36816   4.843   0.528   1.092  0.3102 -0.3782  0.0027
11799SOL    HW136817   4.785   0.519   1.017 -0.8386 -3.9886  1.1248
11799SOL    HW236818   4.786   0.562   1.162 -0.0318 -1.9941  0.5570
11800SOL     OW36819   7.480   1.279   1.484  0.4746 -0.2050 -0.4474
11800SOL    HW136820   7.533   1.212   1.526  1.1960 -0.3950 -1.5993
11800SOL    HW236821   7.470   1.248   1.393  0.7667  1.1943 -0.9784
11801SOL     OW36822   7.971   1.033   2.484  0.1005  0.3619 -0.3216
11801SOL    HW136823   7.887   1.051   2.442 -0.0581  1.0461  0.2795
11801SOL    HW236824   7.951   0.968   2.551 -0.0153  0.7659  0.0404
11802SOL     OW36825   1.863   1.950   0.312 -0.3704 -0.5108 -0.1884
11802SOL    HW136826   1.905   1.940   0.227  1.0604 -0.5132  0.4999
11802SOL    HW236827   1.928   1.994   0.366 -1.8899  1.1334  0.4290
11803SOL     OW36828   6.317   3.921   3.985  0.3733  0.5308 -0.3971
11803SOL    HW136829   6.318   3.967   3.901  0.3103  2.7596  0.7351
11803SOL    HW236830   6.229   3.883   3.990  0.6561 -0.3584 -1.6669
11804SOL     OW36831   6.962   7.268   0.517 -0.0953 -0.0254 -0.3141
11804SOL    HW136832   7.022   7.196   0.540  1.5835  1.0187 -1.1989
11804SOL    HW236833   6.988   7.339   0.575 -0.1195  0.6174 -1.0852
11805SOL     OW36834   6.161   5.101   1.397  0.1728 -0.1281 -0.1509
11805SOL    HW136835   6.095   5.047   1.354 -1.6532  3.2124 -1.9008
11805SOL    HW236836   6.227   5.117   1.330 -0.1198  1.0238 -0.1909
11806SOL     OW36837   0.076   3.590   4.376 -0.0253 -0.1517  0.1408
11806SOL    HW136838   0.068   3.676   4.418  1.1265  0.2142 -0.3333
11806SOL    HW236839   0.005   3.538   4.412 -1.7804  1.4951 -0.7652
11807SOL     OW36840   4.794   5.129   1.597 -0.7559  0.0465  0.2832
11807SOL    HW136841   4.713   5.078   1.586 -0.7476  0.1440 -0.2488
11807SOL    HW236842   4.770   5.200   1.656 -1.3581  0.7234 -0.7518
11808SOL     OW36843   1.453   3.465   1.716  0.0862  0.2178 -0.5018
11808SOL    HW136844   1.543   3.479   1.688 -0.1204 -0.9659 -1.8474
11808SOL    HW236845   1.452   3.378   1.755 -0.3053  0.5871  0.3474
11809SOL     OW36846   7.899   5.578   3.899  0.1527  0.2967  0.1212
11809SOL    HW136847   7.950   5.655   3.871 -0.6406  0.5486 -0.6598
11809SOL    HW236848   7.955   5.503   3.878 -0.3713  0.4732 -2.1344
11810SOL     OW36849   2.122   3.930   1.046  0.5077 -0.0017  0.7158
11810SOL    HW136850   2.100   3.929   0.953 -1.6875 -3.2754  1.0949
11810SOL    HW236851   2.063   3.996   1.083  0.0367 -0.0191  0.0225
11811SOL     OW36852   2.295   4.221   0.217  0.0557  0.2834  0.7831
11811SOL    HW136853   2.292   4.146   0.277 -3.0535  0.8062  1.4433
11811SOL    HW236854   2.255   4.189   0.136  0.2341  0.7948  0.4851
11812SOL     OW36855   2.303   0.894   1.906 -0.0617  0.7111 -0.5128
11812SOL    HW136856   2.362   0.821   1.887  0.2969  0.5503  1.0848
11812SOL    HW236857   2.250   0.903   1.826  1.0357 -0.1655 -1.3839
11813SOL     OW36858   5.002   3.249   7.724  0.4391  0.5603  0.5026
11813SOL    HW136859   5.053   3.216   7.650 -0.1366 -0.2178  0.4376
11813SOL    HW236860   5.067   3.282   7.786  0.9233  1.3932 -0.4228
11814SOL     OW36861   3.856   0.272   6.902 -0.0193  0.5449 -0.4203
11814SOL    HW136862   3.811   0.237   6.979 -1.1949  0.9854 -0.8763
11814SOL    HW236863   3.796   0.339   6.868  1.2151  1.4961 -0.7853
11815SOL     OW36864   2.954   2.089   5.469  0.4455  0.0897  0.4126
11815SOL    HW136865   2.949   2.004   5.513 -0.4482  0.1109  0.3561
11815SOL    HW236866   3.010   2.142   5.525 -0.8842  0.2008  1.6777
11816SOL     OW36867   5.227   0.886   6.904 -0.0043 -0.4082  0.1721
11816SOL    HW136868   5.175   0.956   6.863  0.5106 -0.7642 -1.1411
11816SOL    HW236869   5.318   0.910   6.886  0.1645 -1.9469 -1.3026
11817SOL     OW36870   4.093   6.084   0.942 -0.1641 -0.2190  0.2730
11817SOL    HW136871   4.174   6.051   0.905  1.1387  1.4866  1.4529
11817SOL    HW236872   4.050   6.007   0.980  0.3645 -1.3054 -1.2569
11818SOL     OW36873   6.641   4.911   5.399 -0.1750 -0.2348  0.3599
11818SOL    HW136874   6.570   4.872   5.451  0.3041 -0.0341  1.1728
11818SOL    HW236875   6.677   4.979   5.455 -0.6353  1.0343 -0.8250
11819SOL     OW36876   6.879   3.559   4.472  0.6887 -0.0206 -0.7861
11819SOL    HW136877   6.933   3.592   4.544  0.0429  1.1787 -0.8203
11819SOL    HW236878   6.866   3.466   4.492  0.5675  0.2768  0.6180
11820SOL     OW36879   6.029   0.779   2.787 -0.4149 -0.0295  0.0376
11820SOL    HW136880   6.083   0.857   2.803 -0.2963 -0.2479  0.7172
11820SOL    HW236881   5.962   0.782   2.856 -1.3024  0.2606 -0.8130
11821SOL     OW36882   1.521   5.530   4.345  0.0323  0.0006 -0.6933
11821SOL    HW136883   1.442   5.539   4.398 -0.8362 -2.0506 -1.5606
11821SOL    HW236884   1.591   5.562   4.402 -1.3434  1.5884  0.2041
11822SOL     OW36885   0.812   1.060   0.843 -0.2745  0.1451  0.2843
11822SOL    HW136886   0.827   0.971   0.810  1.0435  0.4068  0.1303
11822SOL    HW236887   0.811   1.115   0.764 -2.8242  0.0898  0.2088
11823SOL     OW36888   1.411   4.970   1.940 -0.6209 -0.5113  0.0695
11823SOL    HW136889   1.353   4.939   1.871  0.6949  1.0630 -1.8471
11823SOL    HW236890   1.383   5.060   1.957 -0.6214 -0.7192  1.3006
11824SOL     OW36891   7.373   0.600   0.548  0.8188  0.2637  0.0185
11824SOL    HW136892   7.323   0.518   0.549  0.5878  0.4059  0.0561
11824SOL    HW236893   7.318   0.662   0.595  1.0997  0.3791  0.1971
11825SOL     OW36894   0.447   7.602   0.969 -0.5053  0.4663 -0.3253
11825SOL    HW136895   0.522   7.601   0.909 -0.0483  0.1740  0.2525
11825SOL    HW236896   0.450   7.518   1.013  0.0355  1.2520  1.1877
11826SOL     OW36897   0.767   5.306   0.862 -0.0143 -0.6276 -0.2161
11826SOL    HW136898   0.781   5.311   0.767  0.1005 -0.7095 -0.2038
11826SOL    HW236899   0.747   5.396   0.888  0.1919 -0.5624 -0.2817
11827SOL     OW36900   4.005   0.583   0.094 -0.2767 -0.0712 -0.6756
11827SOL    HW136901   4.025   0.566   0.002  0.1229 -0.4602 -0.5149
11827SOL    HW236902   4.090   0.593   0.136 -0.4115 -1.2734 -0.0799
11828SOL     OW36903   0.425   6.465   6.567 -0.1497 -0.2099  0.1370
11828SOL    HW136904   0.499   6.514   6.530 -0.8124  2.3950  1.9784
11828SOL    HW236905   0.353   6.481   6.506  0.0573 -0.3519 -0.1502
11829SOL     OW36906   0.101   2.528   6.755 -0.7671 -0.4132  0.0288
11829SOL    HW136907   0.165   2.599   6.754 -1.2847  0.0478 -0.1304
11829SOL    HW236908   0.139   2.464   6.815  0.6294 -0.8720 -1.2679
11830SOL     OW36909   4.166   6.716   2.718  0.3757  0.1305  0.0272
11830SOL    HW136910   4.218   6.712   2.798 -1.7592  1.8141  1.6308
11830SOL    HW236911   4.126   6.629   2.710  2.3360 -0.7625 -0.5245
11831SOL     OW36912   5.368   2.706   1.618  0.1840 -0.5599  0.0201
11831SOL    HW136913   5.403   2.617   1.607  0.1522 -0.6207  0.4196
11831SOL    HW236914   5.432   2.750   1.674  0.8025  0.0226 -1.1158
11832SOL     OW36915   6.502   7.045   6.991 -0.4433  0.2490 -1.4593
11832SOL    HW136916   6.493   7.012   7.081 -0.9170 -2.3134 -2.3644
11832SOL    HW236917   6.596   7.063   6.981  0.0096 -1.7108 -1.1306
11833SOL     OW36918   7.209   0.090   1.112 -0.0727 -0.2687  0.1609
11833SOL    HW136919   7.268   0.162   1.136  0.7849 -1.5681  2.2878
11833SOL    HW236920   7.122   0.122   1.134 -0.1298  1.3050 -2.0599
11834SOL     OW36921   0.841   5.969   0.690  0.7409 -0.1180 -0.1198
11834SOL    HW136922   0.796   5.930   0.616 -0.5266 -0.0265  0.5819
11834SOL    HW236923   0.828   6.064   0.679 -1.0577 -0.1578  1.1484
11835SOL     OW36924   1.589   2.669   1.463 -0.0293  0.5907 -0.3724
11835SOL    HW136925   1.579   2.590   1.410 -1.5359  0.8754 -0.5343
11835SOL    HW236926   1.529   2.656   1.537 -0.2125  1.5379 -0.3483
11836SOL     OW36927   5.474   2.245   4.432  0.0823 -0.2053  0.1188
11836SOL    HW136928   5.466   2.201   4.516  0.3339 -1.8487 -0.6688
11836SOL    HW236929   5.411   2.200   4.375  0.1881  0.6120 -0.6680
11837SOL     OW36930   5.428   6.964   2.516 -0.8657  0.6305  0.1166
11837SOL    HW136931   5.442   6.902   2.444  1.9727  1.1304  0.1461
11837SOL    HW236932   5.379   6.914   2.581 -0.0149 -1.0918 -0.5134
11838SOL     OW36933   5.972   2.253   5.783  0.0543 -0.2604  0.0087
11838SOL    HW136934   5.939   2.306   5.855  2.7358  1.6816 -0.0512
11838SOL    HW236935   6.042   2.201   5.821  2.8660  2.2242 -1.3982
11839SOL     OW36936   5.190   6.107   1.646  0.4169 -0.0828  0.2945
11839SOL    HW136937   5.223   6.096   1.557  1.5109  1.3603  0.4882
11839SOL    HW236938   5.132   6.032   1.660  1.2933 -1.0621 -1.1417
11840SOL     OW36939   5.937   3.641   1.169  0.2104 -0.1723  0.0101
11840SOL    HW136940   5.930   3.708   1.101  1.4725 -0.0434 -0.0148
11840SOL    HW236941   6.028   3.611   1.164 -0.1093 -1.2931  0.5854
11841SOL     OW36942   6.566   4.478   1.173 -0.1805  0.3340 -0.0339
11841SOL    HW136943   6.635   4.427   1.215  0.3071  0.1387 -1.0470
11841SOL    HW236944   6.488   4.459   1.225  0.1602 -0.8242  0.0856
11842SOL     OW36945   0.362   7.438   6.903  0.6506 -0.1870  0.2364
11842SOL    HW136946   0.384   7.521   6.946  0.4529  0.3922 -0.7517
11842SOL    HW236947   0.270   7.423   6.926  0.5547  0.1014  0.0407
11843SOL     OW36948   0.907   2.078   6.036 -0.1065 -0.3952  0.3571
11843SOL    HW136949   0.873   2.056   6.123 -0.2476 -2.3340 -0.1600
11843SOL    HW236950   0.958   2.158   6.051 -1.3575  0.1737  1.9354
11844SOL     OW36951   6.298   4.447   1.294 -0.6863 -0.6057 -0.0458
11844SOL    HW136952   6.308   4.446   1.389  1.0701  0.1695 -0.1797
11844SOL    HW236953   6.292   4.355   1.270 -0.7789 -0.8275  0.7977
11845SOL     OW36954   4.528   5.195   7.776  0.2717 -0.0965 -0.0368
11845SOL    HW136955   4.482   5.120   7.739 -0.8440 -0.2007  1.4761
11845SOL    HW236956   4.601   5.157   7.824  0.9004 -0.0569 -0.9472
11846SOL     OW36957   4.627   6.511   2.817 -0.2123 -0.1730  0.5588
11846SOL    HW136958   4.635   6.510   2.912 -0.3955 -0.5146  0.5748
11846SOL    HW236959   4.717   6.506   2.785 -0.2002 -1.1528  0.7210
11847SOL     OW36960   1.442   1.621   3.382 -0.2746 -0.2872 -0.2888
11847SOL    HW136961   1.459   1.679   3.307 -0.5699 -0.2658 -0.3390
11847SOL    HW236962   1.457   1.677   3.459 -0.6662 -0.1152 -0.3378
11848SOL     OW36963   1.098   0.290   7.969 -0.8815  0.4687 -0.5703
11848SOL    HW136964   1.087   0.204   7.929 -0.7760 -0.6220  1.6052
11848SOL    HW236965   1.189   0.314   7.951 -0.7488 -0.1286 -0.7159
11849SOL     OW36966   4.434   4.644   2.831 -0.2791 -0.4322  0.3145
11849SOL    HW136967   4.346   4.626   2.863 -0.5536  0.6934  0.2179
11849SOL    HW236968   4.485   4.566   2.856 -0.9608 -0.4786  1.6506
11850SOL     OW36969   4.962   4.888   7.998 -0.3267 -0.8099  0.3164
11850SOL    HW136970   4.970   4.794   7.988 -2.4733 -0.9582 -0.4462
11850SOL    HW236971   4.872   4.902   8.028 -0.8459  1.1061 -1.8344
11851SOL     OW36972   4.906   4.700   0.838  0.2965 -0.4666  0.7604
11851SOL    HW136973   4.836   4.751   0.799  1.4643  2.2454  1.9149
11851SOL    HW236974   4.871   4.612   0.846 -3.6081  1.0557  2.7503
11852SOL     OW36975   3.592   1.545   6.478 -0.0666  0.5016  0.0038
11852SOL    HW136976   3.639   1.488   6.538  0.0085  0.5016 -0.0558
11852SOL    HW236977   3.543   1.605   6.535  0.5971  0.9913  0.0607
11853SOL     OW36978   5.845   0.081   4.404  0.9652 -0.0574  0.3984
11853SOL    HW136979   5.885   0.166   4.383 -0.1891  0.2672 -0.6011
11853SOL    HW236980   5.887   0.019   4.344  2.6645 -0.4791  1.9088
11854SOL     OW36981   7.728   0.032   1.080  0.3680 -0.3729 -0.1199
11854SOL    HW136982   7.713  -0.024   1.156 -2.5079  0.8724  0.3721
11854SOL    HW236983   7.698  -0.020   1.005  0.5114 -0.5565 -0.0507
11855SOL     OW36984   4.156   0.873   3.925 -0.3481  0.4194 -0.2705
11855SOL    HW136985   4.081   0.818   3.949 -0.0394 -0.8845 -2.1083
11855SOL    HW236986   4.200   0.890   4.008 -1.3801 -0.7263  0.5569
11856SOL     OW36987   6.911   7.466   3.313 -0.0709  0.1313  0.0792
11856SOL    HW136988   6.837   7.492   3.259 -0.6903  0.6929  1.1492
11856SOL    HW236989   6.941   7.384   3.276  0.7074  1.3815 -2.2400
11857SOL     OW36990   4.490   0.287   2.256  0.2181 -0.2122 -0.7342
11857SOL    HW136991   4.581   0.273   2.285  0.4471  0.0734 -1.2903
11857SOL    HW236992   4.480   0.383   2.256 -0.4249 -0.2673  0.3300
11858SOL     OW36993   6.375   6.412   5.519  0.1850 -0.1437  0.2159
11858SOL    HW136994   6.296   6.396   5.571  0.0473  1.8902  0.7143
11858SOL    HW236995   6.342   6.449   5.437  0.4884 -2.0581 -0.8302
11859SOL     OW36996   7.738   7.859   7.181 -0.3143  0.2706  0.1164
11859SOL    HW136997   7.658   7.881   7.133  0.8226  0.7359 -1.7149
11859SOL    HW236998   7.709   7.811   7.257 -2.3725  0.9811 -0.1620
11860SOL     OW36999   6.120   5.047   4.667 -0.0194 -0.5090 -0.6104
11860SOL    HW137000   6.032   5.010   4.666  0.9614 -3.0488 -1.5724
11860SOL    HW237001   6.139   5.064   4.575  0.3556  0.4193 -0.3666
11861SOL     OW37002   2.836   1.461   3.253  0.4740  0.0479 -0.2554
11861SOL    HW137003   2.860   1.368   3.248  1.2099  0.2663 -0.9854
11861SOL    HW237004   2.912   1.507   3.218 -0.5603  0.8276 -1.5698
11862SOL     OW37005   3.102   6.724   6.778 -0.0904 -0.1973 -0.1356
11862SOL    HW137006   3.183   6.729   6.829 -0.3461  1.2619  0.1712
11862SOL    HW237007   3.130   6.690   6.693  0.5941 -1.1439  0.4483
11863SOL     OW37008   0.739   3.360   3.805 -0.5234  0.0645  0.2245
11863SOL    HW137009   0.677   3.305   3.853 -1.5093  1.4610  0.5969
11863SOL    HW237010   0.793   3.400   3.873 -0.6036  0.4892  0.0417
11864SOL     OW37011   4.387   6.652   2.880  0.0900 -1.0197 -0.5504
11864SOL    HW137012   4.327   6.591   2.924  0.5936 -1.4275 -0.4090
11864SOL    HW237013   4.445   6.595   2.829  1.1788 -0.7593  0.3312
11865SOL     OW37014   3.906   0.904   4.801  0.8267 -0.1301 -0.3423
11865SOL    HW137015   3.948   0.842   4.860  2.6246  2.0310  0.7892
11865SOL    HW237016   3.820   0.921   4.841  0.1119 -2.0842 -0.9023
11866SOL     OW37017   3.407   4.250   0.688 -0.3480 -0.1983  0.0152
11866SOL    HW137018   3.398   4.272   0.596  2.1677 -1.3184 -0.5765
11866SOL    HW237019   3.474   4.308   0.721 -0.6699 -0.3381  0.9575
11867SOL     OW37020   5.016   6.252   7.924  0.3158 -0.0061  0.2896
11867SOL    HW137021   5.027   6.256   8.019 -0.4139 -0.0435  0.3853
11867SOL    HW237022   5.018   6.344   7.896  0.6857 -0.0046  0.3239
11868SOL     OW37023   1.255   7.777   2.415  0.5055  0.6439 -0.2066
11868SOL    HW137024   1.279   7.688   2.439  1.6749  0.8871 -0.4283
11868SOL    HW237025   1.181   7.767   2.355  0.6750 -0.1775 -0.2844
11869SOL     OW37026   6.896   5.700   7.537 -0.1796 -0.1298  0.5236
11869SOL    HW137027   6.939   5.622   7.501 -1.2170  0.3151 -1.8735
11869SOL    HW237028   6.804   5.689   7.515 -0.2031  2.2540 -0.8973
11870SOL     OW37029   6.523   2.208   4.256 -0.4584 -0.4140  0.0017
11870SOL    HW137030   6.489   2.257   4.181 -2.0672  0.2622  1.1145
11870SOL    HW237031   6.506   2.116   4.236 -2.6397 -0.1251  0.3194
11871SOL     OW37032   6.587   0.140   4.434 -0.0555 -0.1705  0.3035
11871SOL    HW137033   6.674   0.118   4.466  0.6785  0.7049 -1.0436
11871SOL    HW237034   6.531   0.135   4.512  1.0949 -1.1666  1.0975
11872SOL     OW37035   3.517   1.673   6.836  0.4854 -0.5085  0.4082
11872SOL    HW137036   3.462   1.606   6.794  0.5266  0.2822 -0.9783
11872SOL    HW237037   3.606   1.640   6.827  0.4453 -0.6137  0.3933
11873SOL     OW37038   4.935   0.153   4.771  0.0027  0.5058 -0.2512
11873SOL    HW137039   4.840   0.168   4.769  0.0110  1.6750  2.8345
11873SOL    HW237040   4.946   0.085   4.838  1.4330  1.8092  0.8891
11874SOL     OW37041   3.403   4.262   3.466 -0.2937  0.5095  0.2175
11874SOL    HW137042   3.421   4.209   3.389 -2.7461  1.7374 -1.3187
11874SOL    HW237043   3.332   4.217   3.511 -0.1380  0.7766  0.7361
11875SOL     OW37044   7.608   4.786   2.142  0.1331  0.2582  0.1997
11875SOL    HW137045   7.546   4.810   2.073  1.2560 -1.6329 -1.5736
11875SOL    HW237046   7.553   4.746   2.210 -0.7357 -0.1520 -0.7169
11876SOL     OW37047   1.022   0.058   7.833  0.1940  0.4951 -0.0932
11876SOL    HW137048   1.035  -0.037   7.842  1.5351  0.7683  1.1644
11876SOL    HW237049   1.081   0.084   7.763 -0.4250  0.3776 -0.6761
11877SOL     OW37050   2.356   6.136   2.845  0.3906 -0.1197 -0.3209
11877SOL    HW137051   2.373   6.045   2.821  1.0578  0.2952 -1.5045
11877SOL    HW237052   2.409   6.151   2.924  1.2974 -0.3917 -0.8676
11878SOL     OW37053   7.998   5.725   4.849 -0.1230  0.1274  0.0313
11878SOL    HW137054   7.940   5.671   4.796  0.3492 -0.8382  0.4612
11878SOL    HW237055   8.016   5.801   4.795 -0.0614 -0.5957 -0.9941
11879SOL     OW37056   2.019   2.958   6.267  0.2462 -0.3296 -0.4154
11879SOL    HW137057   2.074   2.970   6.189  0.8879 -0.3322  0.0343
11879SOL    HW237058   1.934   2.993   6.241  0.2548 -0.9419 -1.3504
11880SOL     OW37059   0.157   7.972   3.002  0.2062 -0.2635 -0.0951
11880SOL    HW137060   0.247   7.997   2.980  0.5095 -0.6091  0.6872
11880SOL    HW237061   0.147   7.997   3.094  0.4741 -2.7632  0.6827
11881SOL     OW37062   4.755   4.452   6.186 -0.0784 -0.4032  0.5087
11881SOL    HW137063   4.839   4.494   6.204  0.5504 -1.7774  0.9296
11881SOL    HW237064   4.741   4.465   6.092  0.9424 -0.7437  0.2985
11882SOL     OW37065   3.401   3.550   1.957  0.9878 -0.3215  0.3373
11882SOL    HW137066   3.321   3.506   1.931  0.4260  0.7050  0.2726
11882SOL    HW237067   3.384   3.579   2.047  0.8937  0.7676 -0.0207
11883SOL     OW37068   3.798   5.049   3.617 -0.7995 -0.0472  0.2666
11883SOL    HW137069   3.759   5.017   3.536 -0.9268  0.8563 -0.0343
11883SOL    HW237070   3.876   4.994   3.629 -1.6012 -1.2176  0.3656
11884SOL     OW37071   3.795   1.177   7.241  0.3060 -0.2989 -0.6826
11884SOL    HW137072   3.867   1.239   7.237  0.4094 -0.4601 -3.5070
11884SOL    HW237073   3.716   1.231   7.244  0.3672  0.1380 -3.6864
11885SOL     OW37074   5.569   5.910   2.211 -0.2949  0.1026  0.2851
11885SOL    HW137075   5.522   5.836   2.248 -0.4717  0.4339  0.7334
11885SOL    HW237076   5.651   5.874   2.180 -0.9459 -0.5339 -0.7397
11886SOL     OW37077   3.163   5.723   7.552 -0.6099 -0.0571 -0.0232
11886SOL    HW137078   3.128   5.707   7.639 -2.4487 -1.4139 -0.9352
11886SOL    HW237079   3.153   5.639   7.506  1.6240  0.2041 -1.1376
11887SOL     OW37080   1.460   1.875   6.004  0.5782 -0.3926  0.3806
11887SOL    HW137081   1.502   1.892   5.920 -0.9938  0.9354 -0.1742
11887SOL    HW237082   1.376   1.834   5.982 -0.6920  1.6803  1.1514
11888SOL     OW37083   0.760   7.529   0.200 -0.3209 -0.2719 -0.4857
11888SOL    HW137084   0.824   7.561   0.264 -0.0659 -2.9417  0.7019
11888SOL    HW237085   0.739   7.606   0.148  0.0312  1.8957  2.3110
11889SOL     OW37086   5.907   6.507   5.509 -0.0797  0.1228 -0.1952
11889SOL    HW137087   5.887   6.467   5.594  0.8538  0.8490  0.3866
11889SOL    HW237088   5.870   6.446   5.445 -1.1960 -0.2179  0.7301
11890SOL     OW37089   5.753   7.067   0.625 -0.2064 -0.1034  0.3590
11890SOL    HW137090   5.782   7.132   0.689 -2.6479  0.0402  1.4428
11890SOL    HW237091   5.677   7.026   0.665 -0.5116 -1.5744 -1.5566
11891SOL     OW37092   0.657   7.962   2.741  0.0377  0.6026  0.2664
11891SOL    HW137093   0.738   7.967   2.690  0.8981  0.7444  1.6113
11891SOL    HW237094   0.623   8.052   2.740  1.0923  1.0451  1.5524
11892SOL     OW37095   0.897   6.587   2.066 -0.5419 -0.0377  0.3301
11892SOL    HW137096   0.852   6.666   2.095  0.1540  0.1509  0.9245
11892SOL    HW237097   0.870   6.519   2.128  0.1650  0.1319  0.8344
11893SOL     OW37098   1.623   4.053   0.577 -0.0420 -0.0166  0.1094
11893SOL    HW137099   1.661   4.088   0.496  1.9576 -2.9733 -0.3912
11893SOL    HW237100   1.621   4.127   0.637 -0.3448  1.9662 -2.2212
11894SOL     OW37101   6.935   0.088   0.025  0.1294  0.1845  0.0752
11894SOL    HW137102   6.967   0.011   0.072  1.3549  0.0677 -0.8942
11894SOL    HW237103   6.984   0.161   0.062 -0.2760  0.3636  0.2682
11895SOL     OW37104   0.513   7.314   3.117  0.2645  0.8715  0.5832
11895SOL    HW137105   0.528   7.282   3.029 -0.3219  0.6158  0.5686
11895SOL    HW237106   0.420   7.338   3.118  0.3313  1.1289  1.0481
11896SOL     OW37107   0.717   3.697   6.323 -0.1840  0.4720  0.4632
11896SOL    HW137108   0.695   3.711   6.230 -3.0813  0.3058  1.0249
11896SOL    HW237109   0.774   3.770   6.345  0.6369  0.4780 -1.4527
11897SOL     OW37110   0.030   3.848   2.422 -0.4349 -0.3236  0.3193
11897SOL    HW137111   0.103   3.895   2.462 -1.0283  0.6857  0.2370
11897SOL    HW237112  -0.032   3.834   2.494  0.0668 -1.7004  0.5232
11898SOL     OW37113   4.039   1.559   6.583  0.4644  0.3126 -0.5913
11898SOL    HW137114   4.070   1.487   6.638  0.8781  0.8285 -0.1392
11898SOL    HW237115   4.120   1.595   6.546  0.2807  0.7398 -0.5698
11899SOL     OW37116   5.474   7.974   4.442 -0.3269  0.0424 -0.1917
11899SOL    HW137117   5.546   8.023   4.479 -0.5805  0.3285 -0.0725
11899SOL    HW237118   5.509   7.936   4.361  0.0375 -0.0626  0.0140
11900SOL     OW37119   5.386   6.354   6.845 -0.4286 -0.1828 -0.1657
11900SOL    HW137120   5.302   6.387   6.875  0.2576 -0.1832  1.8632
11900SOL    HW237121   5.403   6.277   6.900  1.1023  0.0749 -0.2350
11901SOL     OW37122   7.942   7.501   4.145  0.1687  0.5992  0.1003
11901SOL    HW137123   8.003   7.447   4.094 -1.7651  0.6321 -2.4678
11901SOL    HW237124   7.942   7.462   4.232  1.8908 -0.9818 -0.5441
11902SOL     OW37125   2.824   0.397   2.975  0.5380  0.6304  1.0448
11902SOL    HW137126   2.816   0.465   3.041  1.5381  0.5079  1.3145
11902SOL    HW237127   2.762   0.422   2.907  1.4722  2.2499  0.7500
11903SOL     OW37128   1.528   0.823   6.467 -0.0030 -0.5638  0.6162
11903SOL    HW137129   1.561   0.781   6.387 -1.0082  1.5763 -1.0563
11903SOL    HW237130   1.571   0.776   6.538  1.6553 -2.0182 -1.2017
11904SOL     OW37131   3.727   0.538   6.817 -0.0058 -0.1060 -0.5242
11904SOL    HW137132   3.738   0.536   6.912  1.8932  0.8488 -0.6623
11904SOL    HW237133   3.799   0.594   6.786  0.5024 -1.7858 -2.6492
11905SOL     OW37134   8.026   6.358   1.124  0.3754 -0.7186 -0.1025
11905SOL    HW137135   8.080   6.302   1.068  0.1523  1.6432 -2.9067
11905SOL    HW237136   8.088   6.402   1.181  1.5372  1.5516 -2.9130
11906SOL     OW37137   5.452   5.367   6.523  0.1535 -0.1124  0.4233
11906SOL    HW137138   5.522   5.362   6.589  1.4357 -0.3297 -0.9026
11906SOL    HW237139   5.434   5.460   6.514 -0.0335 -0.0798  1.0716
11907SOL     OW37140   5.015   4.805   7.401 -0.0408 -0.3531 -0.8274
11907SOL    HW137141   5.003   4.842   7.313  0.6014 -1.2534 -1.3075
11907SOL    HW237142   5.044   4.880   7.454  1.1293 -0.1155 -1.7540
11908SOL     OW37143   1.665   7.760   1.738  0.3480  0.2714 -0.1890
11908SOL    HW137144   1.718   7.753   1.817 -0.7911 -0.8590  0.5154
11908SOL    HW237145   1.617   7.842   1.749 -0.4103 -0.2766  0.6949
11909SOL     OW37146   5.453   3.752   0.779 -0.2846 -0.0098 -0.3102
11909SOL    HW137147   5.444   3.830   0.833  0.8219  1.0965 -1.6264
11909SOL    HW237148   5.406   3.683   0.826  0.4609  0.9351  1.9101
11910SOL     OW37149   3.426   4.066   6.826 -0.0511  0.0217 -0.0986
11910SOL    HW137150   3.445   4.029   6.740  1.6511 -2.0240  1.0780
11910SOL    HW237151   3.401   4.157   6.807  1.1097 -0.0929 -2.6818
11911SOL     OW37152   3.882   3.071   5.096  0.0975  0.4705 -0.2098
11911SOL    HW137153   3.954   3.046   5.153 -2.2927 -1.7524  2.1604
11911SOL    HW237154   3.869   3.165   5.112  2.1804  0.8378 -0.4771
11912SOL     OW37155   2.582   2.505   0.309  0.0029 -0.6127  0.2570
11912SOL    HW137156   2.670   2.519   0.344  0.7974  0.8958 -2.1637
11912SOL    HW237157   2.595   2.478   0.218 -2.0294 -1.9494  0.2743
11913SOL     OW37158   4.553   7.948   2.518  0.2756  0.0470  0.0116
11913SOL    HW137159   4.508   7.989   2.591  1.1204 -0.9676  1.1355
11913SOL    HW237160   4.635   7.997   2.509 -0.0569  0.5072 -0.6234
11914SOL     OW37161   1.384   2.329   0.375 -0.2770  0.0595 -0.1733
11914SOL    HW137162   1.322   2.396   0.346 -1.7189 -1.2710 -0.2943
11914SOL    HW237163   1.460   2.378   0.404 -0.4587  1.6649 -2.1753
11915SOL     OW37164   2.566   7.711   2.824  0.0598 -0.5691 -0.1560
11915SOL    HW137165   2.526   7.795   2.848  0.5094 -0.6208  0.8338
11915SOL    HW237166   2.641   7.703   2.883  0.2950 -1.4513 -0.5647
11916SOL     OW37167   4.467   7.595   1.581 -0.0434 -0.1247  0.0110
11916SOL    HW137168   4.423   7.597   1.496 -0.5932 -1.0906  0.2486
11916SOL    HW237169   4.397   7.577   1.644  0.5608 -0.8802  0.4932
11917SOL     OW37170   2.078   5.914   0.602 -0.3193 -0.4296  0.0382
11917SOL    HW137171   2.117   5.865   0.674 -2.1911 -2.8596 -0.4786
11917SOL    HW237172   2.012   5.969   0.644  0.9260  0.7832  0.4845
11918SOL     OW37173   0.229   3.019   6.232 -0.1725  0.2537  0.2079
11918SOL    HW137174   0.209   2.952   6.298  1.2345 -1.3093 -0.8738
11918SOL    HW237175   0.322   3.036   6.244  0.0505  0.1007 -1.2259
11919SOL     OW37176   0.890   1.596   5.422 -0.2700  0.1849  0.0294
11919SOL    HW137177   0.904   1.691   5.423  0.6728  0.0766 -1.1445
11919SOL    HW237178   0.823   1.583   5.355 -0.1950 -0.0060 -0.0080
11920SOL     OW37179   5.823   3.602   6.118  0.1943  0.0141 -0.3781
11920SOL    HW137180   5.843   3.529   6.176  0.3955 -0.9797 -1.6349
11920SOL    HW237181   5.877   3.585   6.040  0.7616  1.8780 -0.4328
11921SOL     OW37182   2.342   6.203   6.401  0.5425  0.5154  0.0747
11921SOL    HW137183   2.415   6.213   6.462  0.9121 -0.9176 -0.1107
11921SOL    HW237184   2.366   6.128   6.346 -0.1810  1.2409 -1.2732
11922SOL     OW37185   4.520   2.125   4.222  0.3728  0.0454  0.4326
11922SOL    HW137186   4.547   2.135   4.131 -0.0383  1.2722  0.4286
11922SOL    HW237187   4.468   2.204   4.241  1.0765  0.1817  1.9540
11923SOL     OW37188   7.776   7.606   4.639 -0.4093 -0.0626 -0.0011
11923SOL    HW137189   7.794   7.605   4.733  0.5891  1.1572 -0.1559
11923SOL    HW237190   7.826   7.681   4.606 -0.5861 -0.5962 -1.5365
11924SOL     OW37191   1.936   2.892   0.382  0.2913 -0.2071  0.5926
11924SOL    HW137192   1.968   2.975   0.418  1.8814 -0.8846  0.8414
11924SOL    HW237193   1.907   2.843   0.459 -0.5728  0.0740  0.4536
11925SOL     OW37194   3.388   0.152   4.066 -0.3669  0.2499 -0.3057
11925SOL    HW137195   3.381   0.086   3.997  1.0086  1.6608 -1.8757
11925SOL    HW237196   3.476   0.142   4.101 -0.3291  0.9286 -0.1998
11926SOL     OW37197   6.311   0.536   1.201  0.6541 -0.1019 -0.4304
11926SOL    HW137198   6.256   0.517   1.278  1.1016 -0.1826 -0.1274
11926SOL    HW237199   6.374   0.464   1.199 -0.3568 -0.9907 -1.8299
11927SOL     OW37200   7.374   7.766   0.879  0.5336  0.1553 -1.3499
11927SOL    HW137201   7.283   7.767   0.848  1.0407  0.8267 -2.8711
11927SOL    HW237202   7.401   7.674   0.871 -0.7405 -0.6015  1.5200
11928SOL     OW37203   2.028   5.010   1.520 -0.3804  0.3010  0.0447
11928SOL    HW137204   1.953   5.055   1.560 -1.2443  2.3787 -3.4903
11928SOL    HW237205   2.104   5.048   1.564 -1.2358 -1.3657  3.2418
11929SOL     OW37206   7.613   7.330   4.073  0.2380 -0.1207  0.0277
11929SOL    HW137207   7.627   7.424   4.067 -1.2591  0.4516  3.3055
11929SOL    HW237208   7.675   7.300   4.141  0.3849 -1.4252 -0.6445
11930SOL     OW37209   3.133   2.049   1.754  0.4132 -0.4745  0.0269
11930SOL    HW137210   3.063   2.114   1.746 -0.4665 -1.4698 -0.5880
11930SOL    HW237211   3.208   2.099   1.785 -0.4691  0.6866  0.3759
11931SOL     OW37212   0.937   2.297   0.020 -0.7604 -0.1334  0.4118
11931SOL    HW137213   0.980   2.251   0.093 -2.6287  1.4139  2.6457
11931SOL    HW237214   0.993   2.373   0.003  1.0958 -1.8539 -1.7049
11932SOL     OW37215   0.395   1.357   3.941  0.4235 -0.6133 -0.2235
11932SOL    HW137216   0.473   1.394   3.899  0.6740  0.1992  0.9026
11932SOL    HW237217   0.329   1.426   3.935  0.2099 -0.7945 -0.0053
11933SOL     OW37218   0.850   5.247   6.147 -0.3489  0.3479  0.3962
11933SOL    HW137219   0.942   5.220   6.149 -0.4201  0.0618  0.0311
11933SOL    HW237220   0.827   5.263   6.238  0.2490  1.0617  0.4284
11934SOL     OW37221   5.113   2.436   0.506  0.6311  0.0006  0.2246
11934SOL    HW137222   5.057   2.402   0.436  2.1267 -0.6347 -0.7252
11934SOL    HW237223   5.054   2.483   0.564 -0.3953  2.9838 -2.9000
11935SOL     OW37224   7.971   2.934   4.443  0.4203 -0.8453  0.8320
11935SOL    HW137225   7.960   3.000   4.375  0.7321 -1.3060  0.3230
11935SOL    HW237226   7.931   2.973   4.521 -0.7047 -0.6392  0.1845
11936SOL     OW37227   2.774   5.241   0.288  0.2922 -0.2352  0.3130
11936SOL    HW137228   2.818   5.291   0.219 -0.5891 -0.9349 -0.7794
11936SOL    HW237229   2.801   5.151   0.274 -1.7248 -0.7603 -0.6500
11937SOL     OW37230   6.608   5.228   0.701 -0.0308 -0.5603  0.1631
11937SOL    HW137231   6.597   5.133   0.692 -0.3629 -0.4688 -0.4106
11937SOL    HW237232   6.524   5.259   0.735  0.2465 -0.5327  0.8278
11938SOL     OW37233   6.770   2.867   4.996 -0.3061  0.4652  0.4098
11938SOL    HW137234   6.745   2.960   4.989 -1.5584  0.0422 -1.4163
11938SOL    HW237235   6.722   2.835   5.072  1.1514  1.5709  1.8705
11939SOL     OW37236   6.472   5.481   7.799  0.8780 -0.2031 -0.2118
11939SOL    HW137237   6.453   5.558   7.745  0.0436  1.8416  2.7541
11939SOL    HW237238   6.541   5.510   7.859  1.4093 -2.2025  0.2256
11940SOL     OW37239   4.960   3.940   5.723 -0.1546 -0.2423 -0.1372
11940SOL    HW137240   4.882   3.888   5.703 -0.5352  0.4136 -0.3729
11940SOL    HW237241   5.029   3.901   5.669 -0.5020 -0.3286 -0.5199
11941SOL     OW37242   0.521   5.056   4.427  0.2506 -0.6955 -0.2712
11941SOL    HW137243   0.603   5.102   4.449 -0.4069  0.5645 -0.3696
11941SOL    HW237244   0.506   4.997   4.501  1.2952 -1.0137 -0.2957
11942SOL     OW37245   6.894   4.452   3.012 -0.4260  0.1038 -0.0021
11942SOL    HW137246   6.958   4.382   3.026  0.4896  0.6635 -1.1742
11942SOL    HW237247   6.897   4.469   2.918 -2.2503  0.2196 -0.0790
11943SOL     OW37248   6.495   6.627   4.028 -0.0362  0.4925  0.0026
11943SOL    HW137249   6.534   6.643   3.942 -2.3929  2.1623 -0.8612
11943SOL    HW237250   6.563   6.650   4.091  1.0537  1.2154 -1.3920
11944SOL     OW37251   5.788   6.440   0.102  0.3431  0.1093 -0.0396
11944SOL    HW137252   5.801   6.427   0.196  3.1641  1.7324 -0.0777
11944SOL    HW237253   5.782   6.351   0.066 -0.0428 -0.5517  1.5650
11945SOL     OW37254   2.482   6.519   0.531 -0.0341 -0.6289  0.3197
11945SOL    HW137255   2.536   6.596   0.550  1.3921 -1.4874 -0.0757
11945SOL    HW237256   2.393   6.546   0.553  0.3526  1.2866 -0.2637
11946SOL     OW37257   6.877   6.953   5.018 -0.2311 -0.6146 -0.1810
11946SOL    HW137258   6.881   6.917   5.107  1.3766 -0.3182 -0.1153
11946SOL    HW237259   6.968   6.953   4.988 -0.3788  1.9330 -0.7738
11947SOL     OW37260   7.545   2.705   4.382  1.0221  0.3408  0.2321
11947SOL    HW137261   7.633   2.667   4.385  1.5947  1.6018  0.0384
11947SOL    HW237262   7.559   2.798   4.364 -0.4208  0.2973 -1.3616
11948SOL     OW37263   5.245   2.106   5.107  0.8418  0.7309  0.0089
11948SOL    HW137264   5.230   2.065   5.022  0.0815  1.9471 -0.4772
11948SOL    HW237265   5.264   2.034   5.166 -0.1774 -0.2765 -0.8618
11949SOL     OW37266   0.145   5.945   3.366  0.8955  0.6168 -0.0135
11949SOL    HW137267   0.214   5.936   3.432  0.7912  1.5913  0.2441
11949SOL    HW237268   0.167   6.026   3.320 -1.3366  2.2801  1.6429
11950SOL     OW37269   1.045   3.352   2.832  0.2072 -0.0325  0.7360
11950SOL    HW137270   0.958   3.390   2.828  0.7716  1.2816  0.2744
11950SOL    HW237271   1.031   3.262   2.863 -1.4911 -0.5507 -1.3050
11951SOL     OW37272   1.546   6.088   5.535  0.4147 -0.3469  0.4882
11951SOL    HW137273   1.460   6.049   5.518  0.8801 -0.5729 -1.5832
11951SOL    HW237274   1.527   6.180   5.552 -0.3489 -0.6632  1.4446
11952SOL     OW37275   6.040   2.859   3.689 -0.0301 -0.0769  0.0617
11952SOL    HW137276   6.102   2.800   3.733  0.0458  0.2226  0.3580
11952SOL    HW237277   5.985   2.801   3.636  0.6942 -0.3184 -0.4396
11953SOL     OW37278   6.983   3.002   6.313  0.4907  0.1660 -0.1630
11953SOL    HW137279   6.925   2.933   6.345  2.3132 -1.9389 -1.1408
11953SOL    HW237280   6.955   3.081   6.360 -0.3310 -1.6402  2.6303
11954SOL     OW37281   0.392   2.792   1.935  0.1921  0.3731 -0.7693
11954SOL    HW137282   0.318   2.838   1.976 -0.0655 -1.6559  1.1983
11954SOL    HW237283   0.467   2.812   1.991  0.6337  0.4916 -1.3951
11955SOL     OW37284   1.456   0.570   0.511 -0.7926  0.9479  0.0636
11955SOL    HW137285   1.531   0.537   0.461 -0.5900  2.0795 -0.3929
11955SOL    HW237286   1.382   0.561   0.451 -0.7343  1.3238 -0.0674
11956SOL     OW37287   1.011   5.539   3.660  0.0749  0.1288  0.7082
11956SOL    HW137288   1.003   5.521   3.566  0.0468  0.0457  0.7272
11956SOL    HW237289   1.055   5.462   3.695 -0.4028 -0.0796  0.8541
11957SOL     OW37290   0.216   4.303   0.073 -0.0091 -0.6768  0.3230
11957SOL    HW137291   0.150   4.333   0.011  0.6034 -1.6974 -0.8773
11957SOL    HW237292   0.184   4.219   0.104 -0.2025 -0.2723  1.2442
11958SOL     OW37293   7.338   4.237   1.285 -0.3662 -0.1819 -0.3011
11958SOL    HW137294   7.403   4.168   1.295  1.0657  1.3947  3.3949
11958SOL    HW237295   7.380   4.302   1.229  0.6718  0.0801  0.7241
11959SOL     OW37296   3.682   4.460   1.204 -0.1917 -0.2529  0.1877
11959SOL    HW137297   3.721   4.447   1.117 -0.5531  0.4913 -0.0857
11959SOL    HW237298   3.670   4.554   1.211  1.9799 -0.0324  1.9877
11960SOL     OW37299   7.155   0.245   0.143 -0.1591 -0.4736  0.6836
11960SOL    HW137300   7.215   0.249   0.069 -0.2312 -2.8758  0.4113
11960SOL    HW237301   7.121   0.334   0.152  0.2500 -0.0033 -1.8219
11961SOL     OW37302   1.542   7.083   4.976  0.2764  0.4800  0.0953
11961SOL    HW137303   1.452   7.092   5.007 -0.2172 -1.5671 -0.5867
11961SOL    HW237304   1.533   7.051   4.886  1.6266 -2.0652  0.7655
11962SOL     OW37305   6.328   2.597   5.419  0.2261  0.1258 -0.1802
11962SOL    HW137306   6.236   2.620   5.435  0.3562  1.1101 -0.8065
11962SOL    HW237307   6.378   2.658   5.473  0.5559  0.7705 -1.1924
11963SOL     OW37308   6.793   1.425   4.526 -0.3642 -0.5559 -0.6088
11963SOL    HW137309   6.786   1.460   4.615 -1.2732 -1.3709 -0.3374
11963SOL    HW237310   6.765   1.497   4.469  1.1918  0.3096 -0.3290
11964SOL     OW37311   4.064   1.513   3.125  0.2828  0.2050  0.3877
11964SOL    HW137312   4.158   1.534   3.125  0.5691 -1.0114 -0.0102
11964SOL    HW237313   4.059   1.425   3.089 -1.0586  0.3808  0.0911
11965SOL     OW37314   0.943   0.532   5.234  0.0690 -0.3847 -0.2942
11965SOL    HW137315   0.953   0.437   5.224  0.7849 -0.1309 -2.4117
11965SOL    HW237316   0.913   0.562   5.149 -0.0384  1.3257  0.3122
11966SOL     OW37317   3.668   3.901   3.618  0.1415 -0.4898 -0.2686
11966SOL    HW137318   3.626   3.966   3.674  1.0037  0.9929 -1.2661
11966SOL    HW237319   3.762   3.914   3.633  0.3555 -0.6835 -1.3590
11967SOL     OW37320   4.597   0.993   5.785  0.1211 -0.6156  0.2501
11967SOL    HW137321   4.657   0.936   5.833  1.3200 -0.5791 -1.1347
11967SOL    HW237322   4.510   0.955   5.799  0.3413 -0.3401  2.7680
11968SOL     OW37323   4.701   2.600   5.277 -0.2395  0.0084  0.1972
11968SOL    HW137324   4.614   2.593   5.317  0.0268  0.2902  0.8258
11968SOL    HW237325   4.749   2.526   5.311 -0.4915 -0.6508 -0.8302
11969SOL     OW37326   1.892   0.646   2.625  0.5429  0.1949 -0.7333
11969SOL    HW137327   1.932   0.731   2.642 -0.1885  0.5398 -0.6969
11969SOL    HW237328   1.911   0.627   2.534  2.5685 -0.6205 -0.1869
11970SOL     OW37329   7.807   3.163   2.252 -0.1445 -0.2051 -0.1130
11970SOL    HW137330   7.894   3.181   2.288  0.0870 -0.3979 -0.5726
11970SOL    HW237331   7.747   3.193   2.320  0.2451  1.2640 -0.3689
11971SOL     OW37332   5.318   7.558   2.164 -0.2631 -0.6938  0.4091
11971SOL    HW137333   5.334   7.650   2.185 -0.2788 -0.7688  0.7550
11971SOL    HW237334   5.262   7.527   2.235 -1.1618 -0.6866 -0.2763
11972SOL     OW37335   7.802   8.056   5.046 -0.8352 -0.4046 -0.1448
11972SOL    HW137336   7.756   8.000   4.984  0.8571 -2.1000  0.0090
11972SOL    HW237337   7.859   8.110   4.992 -1.7482  0.4952 -0.2321
11973SOL     OW37338   3.765   1.509   7.391  0.2768  0.1226  0.6065
11973SOL    HW137339   3.704   1.481   7.459  1.0976  0.2374  1.4041
11973SOL    HW237340   3.725   1.478   7.309  0.1266 -1.5315  1.2787
11974SOL     OW37341   0.668   3.181   3.298 -0.1957  0.0508  0.7662
11974SOL    HW137342   0.619   3.196   3.378 -0.9540 -3.4426  1.1373
11974SOL    HW237343   0.621   3.231   3.231 -1.8705 -0.0148  1.8382
11975SOL     OW37344   6.775   0.935   2.844 -0.2475  0.1040 -0.0612
11975SOL    HW137345   6.838   0.900   2.907  0.2177 -1.6262 -1.3993
11975SOL    HW237346   6.809   1.021   2.821  0.5819 -0.0191  0.6562
11976SOL     OW37347   6.931   6.246   4.143  0.1360 -0.0235  0.3170
11976SOL    HW137348   6.881   6.192   4.205  0.4405 -0.9417 -0.2271
11976SOL    HW237349   6.866   6.278   4.080 -0.1102  0.5959  0.8664
11977SOL     OW37350   1.966   0.380   3.114  0.0114  0.4372 -0.6075
11977SOL    HW137351   1.893   0.410   3.059  1.5128 -0.0370 -3.0219
11977SOL    HW237352   2.017   0.322   3.057  2.5850  1.1801  0.7796
11978SOL     OW37353   6.192   0.119   7.232 -0.1917 -0.0078  0.1121
11978SOL    HW137354   6.148   0.161   7.159 -3.2947 -0.7583  1.3729
11978SOL    HW237355   6.125   0.114   7.301  2.7314  1.4357  3.3935
11979SOL     OW37356   3.047   7.079   5.718 -0.4913  0.0533  0.2764
11979SOL    HW137357   3.126   7.059   5.669 -0.0564 -0.2185  1.0621
11979SOL    HW237358   3.003   7.148   5.668 -0.3234 -0.5582 -0.7468
11980SOL     OW37359   7.045   7.322   2.253 -0.0165  0.5980 -0.5007
11980SOL    HW137360   7.109   7.388   2.279  0.9857 -0.5940  0.1801
11980SOL    HW237361   7.063   7.307   2.160  1.2461 -0.2926 -0.1287
11981SOL     OW37362   3.814   1.107   3.034 -0.3900  0.5648  0.4370
11981SOL    HW137363   3.881   1.175   3.019  1.1134 -1.2363 -1.6036
11981SOL    HW237364   3.756   1.113   2.958  0.1196 -0.7816 -0.0865
11982SOL     OW37365   1.989   6.945   0.054 -0.0924  0.0753 -0.2439
11982SOL    HW137366   1.988   6.959   0.149  0.8887  0.4830 -0.2871
11982SOL    HW237367   1.906   6.901   0.036 -0.4168  0.2443  0.7647
11983SOL     OW37368   7.782   5.443   6.606 -0.2390  0.3830 -0.0150
11983SOL    HW137369   7.784   5.533   6.575  1.5077  0.9068  1.4515
11983SOL    HW237370   7.837   5.395   6.545 -0.7626  0.3910 -0.5047
11984SOL     OW37371   7.480   0.501   3.615 -0.1180  0.1918  0.5015
11984SOL    HW137372   7.569   0.522   3.643  0.2835 -0.1477 -0.4806
11984SOL    HW237373   7.453   0.578   3.564  0.1620 -0.3010 -0.4121
11985SOL     OW37374   0.155   4.158   4.039 -1.2129  0.0394 -0.0628
11985SOL    HW137375   0.139   4.082   4.095 -2.2024  0.2105 -0.0944
11985SOL    HW237376   0.072   4.171   3.993 -0.5501  0.1331 -1.2906
11986SOL     OW37377   7.781   6.390   4.945  0.2787  0.0588  0.2694
11986SOL    HW137378   7.729   6.349   5.014 -1.0103 -1.2389 -1.3697
11986SOL    HW237379   7.831   6.458   4.989 -0.5825 -0.6274  2.4355
11987SOL     OW37380   4.586   6.780   6.227  0.4968 -0.0995  0.3199
11987SOL    HW137381   4.624   6.697   6.198  0.6643  0.6057 -1.6325
11987SOL    HW237382   4.493   6.772   6.206  0.6717  0.5418 -0.7268
11988SOL     OW37383   8.056   7.692   2.460  0.7408  0.3233  0.0694
11988SOL    HW137384   8.120   7.668   2.527  0.4112  1.3365  0.7581
11988SOL    HW237385   7.985   7.733   2.508  0.8360  1.7682 -0.9595
11989SOL     OW37386   7.441   0.636   2.066 -0.5516 -0.0015  0.2242
11989SOL    HW137387   7.500   0.706   2.038  0.0499  0.0495  1.5516
11989SOL    HW237388   7.355   0.676   2.070 -0.6353  0.0403 -1.2954
11990SOL     OW37389   1.998   5.012   5.001 -0.1217  0.1288 -0.5260
11990SOL    HW137390   1.925   4.976   5.051  1.8476 -3.3587  0.1687
11990SOL    HW237391   1.980   4.987   4.910 -0.6394  0.8606 -0.6279
11991SOL     OW37392   0.286   7.521   4.270 -0.1563  0.1807 -0.4677
11991SOL    HW137393   0.372   7.490   4.243  0.1053  0.4723  0.0244
11991SOL    HW237394   0.271   7.600   4.217  0.7061  1.2187  0.7762
11992SOL     OW37395   0.269   0.170   5.780 -0.1603  0.0888  1.2544
11992SOL    HW137396   0.324   0.248   5.782 -0.9957  0.7066  0.7632
11992SOL    HW237397   0.300   0.116   5.853  1.0856  0.4139  0.9764
11993SOL     OW37398   3.003   7.388   5.053 -0.0089 -0.3312  0.2092
11993SOL    HW137399   2.914   7.400   5.087  0.2010 -0.5814  0.8532
11993SOL    HW237400   3.008   7.296   5.029  0.0058 -0.2656 -0.0463
11994SOL     OW37401   6.102   3.260   6.057 -0.4213  0.0007 -0.0646
11994SOL    HW137402   6.094   3.273   6.152  0.8054  0.8122 -0.0525
11994SOL    HW237403   6.047   3.183   6.039 -1.4660  0.4184  1.1402
11995SOL     OW37404   4.181   4.474   0.215  0.5209 -0.1288  0.2493
11995SOL    HW137405   4.240   4.491   0.288 -0.9585  0.3340  1.3892
11995SOL    HW237406   4.112   4.419   0.252 -0.4920  0.4704 -0.6849
11996SOL     OW37407   6.653   0.327   5.756  0.0652 -0.2087  0.2362
11996SOL    HW137408   6.564   0.292   5.762  0.3611 -0.8621  1.2283
11996SOL    HW237409   6.650   0.389   5.684 -0.8671 -1.1953 -0.6142
11997SOL     OW37410   0.689   5.015   0.530  0.4511  0.3311 -0.0463
11997SOL    HW137411   0.762   5.036   0.471 -1.4581  1.9221 -2.0033
11997SOL    HW237412   0.617   4.991   0.472 -0.8006 -0.6581  1.7982
11998SOL     OW37413   1.561   6.108   6.695  0.0491  0.4279  0.4275
11998SOL    HW137414   1.639   6.161   6.705  0.2764  0.1336  0.2388
11998SOL    HW237415   1.581   6.050   6.621  0.0250 -0.3046  0.9837
11999SOL     OW37416   7.358   7.761   6.705  0.3548  0.5122 -0.2214
11999SOL    HW137417   7.454   7.761   6.711  0.3435  0.2360  0.0042
11999SOL    HW237418   7.335   7.671   6.680  0.0458 -0.0835  1.9472
12000SOL     OW37419   3.763   2.894   4.542 -0.6515 -0.4373  0.6069
12000SOL    HW137420   3.785   2.923   4.630  1.2796 -1.7693  0.6256
12000SOL    HW237421   3.678   2.850   4.552 -1.5078  1.3049  1.3521
12001SOL     OW37422   3.657   1.337   2.076 -0.4355  1.2401  0.5718
12001SOL    HW137423   3.677   1.379   2.160 -2.7992  1.0804  1.3114
12001SOL    HW237424   3.663   1.243   2.095 -3.9990  1.0396  1.6281
12002SOL     OW37425   8.037   6.686   2.389 -0.6367 -0.2347 -0.2183
12002SOL    HW137426   8.124   6.662   2.420 -1.1888 -0.3797  1.3074
12002SOL    HW237427   8.000   6.739   2.460 -1.4499  0.6079 -1.2346
12003SOL     OW37428   2.030   5.983   6.092 -0.3909 -0.4031  0.6265
12003SOL    HW137429   2.015   5.984   6.187 -0.8931 -0.9505  0.5576
12003SOL    HW237430   2.107   6.039   6.080  0.2410 -1.0671  1.4608
12004SOL     OW37431   5.074   6.998   1.418  0.2362 -0.7407 -0.1610
12004SOL    HW137432   5.041   7.061   1.481  0.0323 -1.7835  0.8192
12004SOL    HW237433   4.997   6.946   1.393  0.5050 -0.9882 -0.4913
12005SOL     OW37434   5.992   2.798   1.317  0.1398  0.2677 -0.1644
12005SOL    HW137435   6.061   2.824   1.378  2.2762  0.2351 -2.4237
12005SOL    HW237436   5.971   2.879   1.269  0.5420 -0.2608 -1.2668
12006SOL     OW37437   2.441   1.414   0.298  0.2619  0.0767 -0.2921
12006SOL    HW137438   2.437   1.426   0.393  0.7717  0.6959 -0.3454
12006SOL    HW237439   2.387   1.337   0.282  1.0806 -0.7302  0.6322
12007SOL     OW37440   6.463   6.054   2.895 -0.7591  0.6121 -0.0055
12007SOL    HW137441   6.477   6.026   2.804 -3.5430  0.8988 -0.6031
12007SOL    HW237442   6.480   6.149   2.893 -1.3265  0.7093 -0.3523
12008SOL     OW37443   7.715   1.560   3.278  0.3123  0.0847 -0.1819
12008SOL    HW137444   7.654   1.610   3.333 -0.8174 -1.3701 -0.0604
12008SOL    HW237445   7.698   1.469   3.300  1.1265 -0.4549 -1.6455
12009SOL     OW37446   1.647   6.404   5.906  0.6858  0.3950 -0.2150
12009SOL    HW137447   1.730   6.356   5.908  0.8865  0.7304 -0.4266
12009SOL    HW237448   1.605   6.376   5.825  0.8428  0.6364 -0.3828
12010SOL     OW37449   5.286   0.366   1.004  0.5563 -0.3344  0.7466
12010SOL    HW137450   5.233   0.356   0.925  0.5633  1.7098  0.4379
12010SOL    HW237451   5.222   0.373   1.075  0.4431  0.5600  0.5669
12011SOL     OW37452   0.810   6.377   3.148 -0.4160  0.3787 -0.0709
12011SOL    HW137453   0.728   6.398   3.193  0.3181  2.1998  0.5365
12011SOL    HW237454   0.874   6.435   3.189  1.3398 -1.4601 -0.0601
12012SOL     OW37455   2.178   4.572   3.214 -0.6654  0.4810 -0.4493
12012SOL    HW137456   2.214   4.555   3.302 -0.1247 -1.1188 -0.9501
12012SOL    HW237457   2.088   4.539   3.218  0.0903 -1.8675 -1.1408
12013SOL     OW37458   3.678   2.943   7.515  0.0226 -0.1362 -0.1663
12013SOL    HW137459   3.711   2.905   7.433  1.9468 -0.1877  0.5725
12013SOL    HW237460   3.756   2.953   7.570 -1.2759 -0.5593  1.8599
12014SOL     OW37461   7.900   0.988   3.763 -0.3944 -0.3430  0.5045
12014SOL    HW137462   7.832   0.921   3.771 -1.2748  0.5520  0.7045
12014SOL    HW237463   7.931   0.981   3.673  0.3723 -1.8069  0.8626
12015SOL     OW37464   3.595   3.151   6.772 -0.0328  0.8147  0.4545
12015SOL    HW137465   3.595   3.193   6.686  0.6652  0.1512  0.1220
12015SOL    HW237466   3.643   3.211   6.828  1.4332  0.2533 -0.1437
12016SOL     OW37467   0.152   3.316   0.265 -0.5828  0.0817  0.2790
12016SOL    HW137468   0.098   3.242   0.292 -1.2687  0.2172 -0.6460
12016SOL    HW237469   0.232   3.276   0.231 -0.9344 -0.2507 -0.1826
12017SOL     OW37470   2.454   4.214   2.057 -0.3443  0.3701 -0.1048
12017SOL    HW137471   2.490   4.264   1.983  2.1706 -0.0233  0.7489
12017SOL    HW237472   2.466   4.271   2.133 -0.9565 -0.0489  0.3158
12018SOL     OW37473   3.494   2.518   6.254  0.1580 -0.0513 -0.2638
12018SOL    HW137474   3.447   2.571   6.190  0.7805 -0.9544 -1.4958
12018SOL    HW237475   3.449   2.433   6.253  0.4918 -0.2378  0.1023
12019SOL     OW37476   0.182   3.305   2.218 -0.0423 -0.2351  0.5076
12019SOL    HW137477   0.164   3.263   2.134 -0.6363 -0.5620  0.7922
12019SOL    HW237478   0.265   3.351   2.204  0.2121 -0.8432 -0.0533
12020SOL     OW37479   2.945   4.129   5.273 -0.2433 -0.0760  0.3289
12020SOL    HW137480   2.986   4.042   5.271  0.2666  0.1720 -0.9660
12020SOL    HW237481   2.949   4.160   5.182 -2.6928  0.2571  0.2528
12021SOL     OW37482   6.116   5.155   3.610  0.1250 -0.1324 -0.1666
12021SOL    HW137483   6.023   5.160   3.633  0.7754  0.5374  2.8654
12021SOL    HW237484   6.119   5.170   3.516 -2.8828 -1.0221 -0.4917
12022SOL     OW37485   5.406   6.961   0.392  0.2920 -0.1836 -0.2441
12022SOL    HW137486   5.456   6.949   0.311  0.3002  0.5097 -0.3495
12022SOL    HW237487   5.465   7.012   0.448  0.7583 -1.6601  0.6563
12023SOL     OW37488   5.584   2.029   2.164  0.0392 -0.1288  0.0449
12023SOL    HW137489   5.652   2.033   2.096 -1.0163  1.1607 -0.9767
12023SOL    HW237490   5.576   1.935   2.184  2.9288 -0.2814  1.0892
12024SOL     OW37491   4.947   6.023   4.378  0.0025  0.0005  0.7371
12024SOL    HW137492   4.920   5.932   4.387  0.9352 -0.2441  1.2268
12024SOL    HW237493   4.944   6.040   4.284 -0.6058 -0.3881  0.6789
12025SOL     OW37494   2.986   5.581   4.011 -0.0211  0.1613 -0.0134
12025SOL    HW137495   2.961   5.492   4.033 -1.6191  0.7522  0.7430
12025SOL    HW237496   3.030   5.615   4.089  2.0343 -0.4216 -0.8509
12026SOL     OW37497   5.921   1.934   6.027  1.0789  0.1334 -0.0336
12026SOL    HW137498   5.850   1.889   5.981  0.4928  0.4718  0.5244
12026SOL    HW237499   5.896   1.931   6.119 -0.0437  3.3431 -0.1070
12027SOL     OW37500   0.435   6.169   4.778  0.5193  0.7473  0.5549
12027SOL    HW137501   0.455   6.259   4.752 -0.9238  0.7950 -0.5250
12027SOL    HW237502   0.360   6.177   4.836  1.2235  0.3129  1.5591
12028SOL     OW37503   7.254   1.839   1.357 -0.5160  0.3235 -0.2705
12028SOL    HW137504   7.267   1.914   1.300 -0.5360 -0.1244 -0.8696
12028SOL    HW237505   7.310   1.770   1.320 -0.8604 -0.1062 -0.0091
12029SOL     OW37506   6.057   5.396   2.443 -0.4784  0.1628 -0.4729
12029SOL    HW137507   5.983   5.361   2.394  0.3876 -1.4996 -0.6542
12029SOL    HW237508   6.019   5.464   2.499 -1.7612  0.9001 -2.1527
12030SOL     OW37509   7.113   1.352   7.086 -0.0053  0.1013 -0.1636
12030SOL    HW137510   7.126   1.257   7.085  2.2476  0.3608  0.4485
12030SOL    HW237511   7.088   1.372   7.177  3.0107  0.4325  0.6822
12031SOL     OW37512   4.880   6.088   4.098 -0.3390 -0.3004 -0.9721
12031SOL    HW137513   4.801   6.047   4.063 -0.8384  0.0522 -0.2991
12031SOL    HW237514   4.863   6.182   4.091  0.1723 -0.2232 -1.1602
12032SOL     OW37515   7.135   7.694   3.989 -0.5297 -0.2314 -0.4562
12032SOL    HW137516   7.187   7.678   4.067 -1.9383  2.0060  1.0658
12032SOL    HW237517   7.087   7.612   3.974  0.4698 -1.0018  0.4453
12033SOL     OW37518   2.133   7.002   7.127  0.1289  0.3257 -0.0743
12033SOL    HW137519   2.037   7.001   7.131  0.1676  0.1466  0.8906
12033SOL    HW237520   2.158   7.086   7.166  0.3684  0.3678 -0.3122
12034SOL     OW37521   0.590   4.409   2.957  0.0359  0.4634  0.0358
12034SOL    HW137522   0.592   4.483   2.895 -1.3699  0.6410  0.1857
12034SOL    HW237523   0.502   4.373   2.949  0.6125 -1.0577  0.1644
12035SOL     OW37524   1.895   5.694   0.207  0.0935  0.1299 -0.3024
12035SOL    HW137525   1.980   5.687   0.251 -1.0873  0.8138  2.2528
12035SOL    HW237526   1.848   5.615   0.233 -0.6164  0.5081 -0.4073
12036SOL     OW37527   6.140   5.583   1.859  0.5474  0.5719 -0.0844
12036SOL    HW137528   6.091   5.558   1.937  1.3662 -0.3165  0.1598
12036SOL    HW237529   6.074   5.586   1.789  0.4410 -3.0004 -0.2910
12037SOL     OW37530   1.734   2.642   0.276 -0.2029  0.7387  0.3567
12037SOL    HW137531   1.816   2.602   0.247 -0.5150 -0.7231  1.3824
12037SOL    HW237532   1.758   2.732   0.299  0.5947  1.0860 -1.6748
12038SOL     OW37533   5.615   1.734   4.565 -0.0667  0.3083 -0.3942
12038SOL    HW137534   5.613   1.739   4.470  0.7296 -0.1951 -0.4483
12038SOL    HW237535   5.704   1.704   4.586  0.0002  1.1138  0.5375
12039SOL     OW37536   4.166   0.499   4.055 -0.6950  0.3462  0.0510
12039SOL    HW137537   4.242   0.550   4.082  0.6376 -0.9832 -1.0017
12039SOL    HW237538   4.139   0.452   4.135  0.1827  0.1246  0.2265
12040SOL     OW37539   3.321   6.414   4.336  0.1193  0.2093  0.1414
12040SOL    HW137540   3.278   6.331   4.313 -1.8695  1.5006 -1.0869
12040SOL    HW237541   3.362   6.444   4.255  0.1551  0.8189  0.3774
12041SOL     OW37542   6.708   3.737   0.966  0.2851 -0.4175 -0.2521
12041SOL    HW137543   6.692   3.667   1.029 -1.1934 -1.9444 -2.1953
12041SOL    HW237544   6.663   3.709   0.887  1.5763  1.6823 -1.8465
12042SOL     OW37545   6.785   0.683   3.666 -0.9326  0.5130 -0.6416
12042SOL    HW137546   6.809   0.662   3.576 -0.6779  0.3264 -0.5312
12042SOL    HW237547   6.732   0.763   3.659 -1.3959  0.1819 -1.0076
12043SOL     OW37548   0.161   0.702   2.221  0.3031 -0.2166 -0.1435
12043SOL    HW137549   0.151   0.672   2.130  2.5793 -0.5215 -0.3698
12043SOL    HW237550   0.211   0.784   2.213 -0.4933  0.3752  0.7960
12044SOL     OW37551   7.887   7.454   5.335 -0.4487 -0.6549  0.6014
12044SOL    HW137552   7.980   7.436   5.324 -0.6260 -0.0432 -3.0368
12044SOL    HW237553   7.877   7.546   5.313 -2.1379 -1.2295 -1.3369
12045SOL     OW37554   2.102   0.910   6.312 -0.0933  0.7243 -0.2676
12045SOL    HW137555   2.113   0.895   6.218 -1.3101 -1.0492 -0.1673
12045SOL    HW237556   2.011   0.936   6.322 -0.3382 -0.3713  0.5364
12046SOL     OW37557   1.675   7.237   5.783  0.1406 -0.2738 -0.0852
12046SOL    HW137558   1.657   7.203   5.871 -0.6893 -1.7364 -0.7798
12046SOL    HW237559   1.606   7.303   5.769 -2.4858 -2.9926 -1.1648
12047SOL     OW37560   7.101   6.833   3.444 -0.1178 -0.1125 -0.1760
12047SOL    HW137561   7.090   6.876   3.530 -2.2417 -0.3593 -0.2560
12047SOL    HW237562   7.047   6.754   3.450 -1.4298  0.5496 -2.1560
12048SOL     OW37563   2.844   2.105   4.626  0.6079  0.3115 -0.2175
12048SOL    HW137564   2.877   2.105   4.536  1.8538  1.9231  0.1911
12048SOL    HW237565   2.820   2.014   4.643  1.4322 -0.2322 -1.7926
12049SOL     OW37566   5.049   4.465   7.616  0.2892 -0.4117  0.1963
12049SOL    HW137567   5.120   4.404   7.639  0.4657 -0.5259 -0.6119
12049SOL    HW237568   4.978   4.443   7.675  0.2439 -1.6110 -0.2918
12050SOL     OW37569   5.383   3.711   2.938 -0.6189  0.0265 -0.5259
12050SOL    HW137570   5.428   3.687   3.019 -1.3609  0.3788  0.0111
12050SOL    HW237571   5.348   3.798   2.955  0.5285  0.7744 -1.8011
12051SOL     OW37572   4.724   1.478   0.592 -0.2052  0.4330  0.5750
12051SOL    HW137573   4.817   1.477   0.567  0.2382  0.4359  2.1318
12051SOL    HW237574   4.684   1.541   0.532  0.4652 -0.7011 -1.1648
12052SOL     OW37575   7.148   0.466   3.843  0.4200  0.0120  0.3890
12052SOL    HW137576   7.203   0.541   3.864  1.8039 -0.1538 -2.1701
12052SOL    HW237577   7.059   0.500   3.848  1.0132  2.0702 -1.2538
12053SOL     OW37578   4.438   7.482   2.691  0.2218 -0.5186 -0.0675
12053SOL    HW137579   4.473   7.468   2.779 -1.1401  1.8770  0.9616
12053SOL    HW237580   4.448   7.576   2.676 -0.9824 -0.6269 -1.8555
12054SOL     OW37581   6.275   2.377   4.170  0.3253 -0.5882 -0.3284
12054SOL    HW137582   6.331   2.380   4.092 -0.7166  2.8286 -1.1151
12054SOL    HW237583   6.206   2.441   4.153  0.4129  0.8475  3.6746
12055SOL     OW37584   6.145   3.474   7.966  0.1375  0.3503  0.1830
12055SOL    HW137585   6.146   3.511   7.878  0.5402 -0.1633 -0.0348
12055SOL    HW237586   6.097   3.538   8.019  0.7354  1.1285 -0.2015
12056SOL     OW37587   6.442   3.714   2.232 -0.0615 -0.5509 -0.1930
12056SOL    HW137588   6.445   3.802   2.195  1.2390 -0.3028  0.4324
12056SOL    HW237589   6.418   3.727   2.324  0.7609 -0.7806  0.0635
12057SOL     OW37590   0.402   1.647   7.428 -0.4352 -0.3707  0.2723
12057SOL    HW137591   0.382   1.724   7.375 -0.2887 -0.5714 -0.0738
12057SOL    HW237592   0.327   1.589   7.415 -0.1699 -0.6324 -0.1129
12058SOL     OW37593   7.262   6.196   3.270 -0.9000  0.1509 -0.4551
12058SOL    HW137594   7.237   6.104   3.265 -0.1211 -0.0799 -0.2282
12058SOL    HW237595   7.335   6.198   3.332 -3.4123  1.4372  2.7490
12059SOL     OW37596   5.344   7.428   5.854  0.0401 -0.1191 -0.0672
12059SOL    HW137597   5.417   7.470   5.901 -1.4829  1.0365  1.3679
12059SOL    HW237598   5.268   7.480   5.877 -1.3433 -1.5726 -1.1650
12060SOL     OW37599   5.459   6.194   6.615  0.0109 -0.1674 -0.3727
12060SOL    HW137600   5.400   6.250   6.666  1.7323  0.5642  0.9148
12060SOL    HW237601   5.525   6.254   6.580  0.8136 -1.1353 -0.5579
12061SOL     OW37602   0.649   4.520   4.514  0.6771 -0.3866 -0.1300
12061SOL    HW137603   0.725   4.526   4.572  0.9506 -0.1049 -0.5164
12061SOL    HW237604   0.621   4.428   4.521  1.3452 -0.6108 -0.3506
12062SOL     OW37605   1.457   1.684   5.333  0.1557  0.0697  0.7365
12062SOL    HW137606   1.544   1.701   5.369  0.2769 -1.8486  1.4885
12062SOL    HW237607   1.458   1.591   5.310 -0.5940  0.7570 -2.4811
12063SOL     OW37608   6.307   3.960   3.415  0.2481  0.0141 -0.5769
12063SOL    HW137609   6.222   4.004   3.426  0.4578 -0.0481  1.9472
12063SOL    HW237610   6.287   3.867   3.432  0.6769 -0.1208 -0.8161
12064SOL     OW37611   6.460   1.565   4.763 -0.6872 -0.3820  0.5015
12064SOL    HW137612   6.375   1.591   4.727 -0.6121  0.2928  0.7910
12064SOL    HW237613   6.515   1.642   4.750 -0.3521 -0.5246  1.0728
12065SOL     OW37614   5.952   4.832   0.203 -0.4427  0.0264 -0.8453
12065SOL    HW137615   6.033   4.794   0.236 -0.2136 -0.1236 -1.5740
12065SOL    HW237616   5.973   4.924   0.186 -0.5824  0.1226 -0.5090
12066SOL     OW37617   1.575   2.762   2.606 -0.6192 -0.7157 -0.0628
12066SOL    HW137618   1.517   2.827   2.645 -0.5809 -0.3007 -0.6838
12066SOL    HW237619   1.542   2.751   2.517  2.3378  2.2611 -1.7673
12067SOL     OW37620   6.053   5.217   0.977 -0.5679 -0.3809 -0.3562
12067SOL    HW137621   6.011   5.299   1.003 -0.1951 -0.1589 -0.4408
12067SOL    HW237622   6.003   5.149   1.022 -0.0570 -0.0238  0.7923
12068SOL     OW37623   1.854   0.475   3.949 -0.6333  0.1481  0.2730
12068SOL    HW137624   1.771   0.511   3.982 -0.8565  1.9787 -2.0684
12068SOL    HW237625   1.860   0.506   3.859  2.7563  0.3197  0.4365
12069SOL     OW37626   2.037   6.355   5.002  0.2756 -0.4114  0.3467
12069SOL    HW137627   2.099   6.296   5.045  0.8529  0.1553  0.2976
12069SOL    HW237628   2.090   6.403   4.938 -0.2486 -0.0489  0.1808
12070SOL     OW37629   6.816   2.818   0.006  0.1552  0.7669 -0.6133
12070SOL    HW137630   6.808   2.877  -0.068  1.5372  0.6352 -0.9005
12070SOL    HW237631   6.910   2.815   0.025 -0.0469 -0.1083  0.3951
12071SOL     OW37632   4.979   6.008   6.632  0.6889 -0.1845 -0.2736
12071SOL    HW137633   5.065   6.004   6.591  0.2845  1.0080 -1.2971
12071SOL    HW237634   4.924   6.055   6.569 -0.9873 -1.7820 -0.1296
12072SOL     OW37635   5.415   7.815   7.463 -0.4798 -0.0218  0.2874
12072SOL    HW137636   5.397   7.796   7.371 -2.4771  1.6558  0.2635
12072SOL    HW237637   5.505   7.848   7.463 -0.4809  0.0332 -1.0616
12073SOL     OW37638   6.784   2.646   3.353  0.4267  0.4166 -0.2033
12073SOL    HW137639   6.817   2.725   3.397  0.4656  0.0608  0.4068
12073SOL    HW237640   6.862   2.604   3.317  0.7803 -0.7830  1.8144
12074SOL     OW37641   0.375   7.880   6.471  0.2489 -0.1307 -0.2190
12074SOL    HW137642   0.374   7.879   6.376 -0.0164 -0.1233 -0.2161
12074SOL    HW237643   0.357   7.789   6.496 -0.9765  0.1218 -0.1636
12075SOL     OW37644   7.965   6.282   3.235 -0.2111 -0.4609  0.1664
12075SOL    HW137645   7.999   6.331   3.309  0.5920 -0.4007 -0.2375
12075SOL    HW237646   8.041   6.264   3.180 -0.6859 -1.0928 -0.3071
12076SOL     OW37647   6.392   6.867   0.083 -0.0857 -0.4513 -0.1583
12076SOL    HW137648   6.338   6.823   0.148 -1.5063  0.7418 -0.4824
12076SOL    HW237649   6.443   6.797   0.043 -2.6919 -1.9410 -1.0896
12077SOL     OW37650   1.163   2.170   1.957  0.6145 -0.5203  0.2488
12077SOL    HW137651   1.082   2.152   1.910  1.3569 -2.5869 -0.3544
12077SOL    HW237652   1.218   2.218   1.895  1.0310 -1.9527 -0.5379
12078SOL     OW37653   1.302   2.251   1.696 -0.0666  0.2476  0.1966
12078SOL    HW137654   1.213   2.230   1.669 -0.4522 -0.5780  2.0100
12078SOL    HW237655   1.354   2.238   1.616 -1.5024  0.4822 -0.8195
12079SOL     OW37656   1.072   1.680   1.135 -0.3909 -0.2068 -0.3248
12079SOL    HW137657   1.100   1.604   1.084 -3.7389 -1.0637 -1.0971
12079SOL    HW237658   0.999   1.717   1.086  0.7775  3.3081  0.2882
12080SOL     OW37659   3.312   4.262   8.032 -0.0815 -0.6743  0.1705
12080SOL    HW137660   3.268   4.266   7.948  0.6555  0.3798 -0.1831
12080SOL    HW237661   3.278   4.182   8.073 -1.2046 -0.6579 -0.6857
12081SOL     OW37662   7.128   2.755   5.581  0.0506 -0.4742 -0.3370
12081SOL    HW137663   7.212   2.719   5.611  0.7662  1.6329  0.3937
12081SOL    HW237664   7.063   2.692   5.612  1.2207 -1.1864  0.7894
12082SOL     OW37665   5.882   7.466   5.693  0.2806  0.3205  0.6182
12082SOL    HW137666   5.840   7.543   5.733  0.3217  0.1534  0.9858
12082SOL    HW237667   5.817   7.396   5.703 -0.1879  0.5548 -0.6616
12083SOL     OW37668   0.479   2.336   4.058  0.2438  0.2110  0.3822
12083SOL    HW137669   0.390   2.300   4.063 -0.0368  0.7216 -0.6203
12083SOL    HW237670   0.468   2.429   4.076  0.2740  0.6423 -1.6221
12084SOL     OW37671   7.203   1.625   1.579  0.0592 -0.0165 -0.1394
12084SOL    HW137672   7.230   1.607   1.669 -1.4166  1.2615  0.6082
12084SOL    HW237673   7.253   1.703   1.555  0.2567 -0.2012 -0.3201
12085SOL     OW37674   0.468   5.744   7.006  0.2278 -0.1551  0.1692
12085SOL    HW137675   0.383   5.783   7.027 -0.0550 -0.7176  0.0649
12085SOL    HW237676   0.532   5.809   7.038 -0.2236 -0.0711  0.9326
12086SOL     OW37677   3.611   6.839   2.886  0.3752 -0.3657  0.5225
12086SOL    HW137678   3.670   6.775   2.846 -0.5576 -0.4003 -0.9041
12086SOL    HW237679   3.523   6.808   2.861 -0.1833  0.3395  1.5692
12087SOL     OW37680   5.592   3.656   2.598  0.5202  0.1191  0.0866
12087SOL    HW137681   5.554   3.651   2.686 -0.4218  1.8712 -0.1709
12087SOL    HW237682   5.517   3.672   2.541  1.3647  1.2078 -0.7547
12088SOL     OW37683   3.633   1.445   7.171 -0.0974  0.1326 -0.5278
12088SOL    HW137684   3.671   1.531   7.152  1.2545 -0.3781 -0.1997
12088SOL    HW237685   3.550   1.445   7.123  0.2449  1.3231 -1.1617
12089SOL     OW37686   3.653   6.236   2.455 -0.1550  0.3575  0.5147
12089SOL    HW137687   3.656   6.301   2.526  0.3306 -0.1304  0.9471
12089SOL    HW237688   3.726   6.258   2.398 -0.5360  0.7400  0.1639
12090SOL     OW37689   7.064   8.056   2.879  0.1482  0.1377 -0.2142
12090SOL    HW137690   7.050   8.138   2.926 -1.4594 -0.6063  0.6951
12090SOL    HW237691   7.119   8.004   2.937 -2.2239 -0.9634  1.1825
12091SOL     OW37692   7.540   5.951   3.098 -0.0081 -0.9519  0.0016
12091SOL    HW137693   7.609   6.013   3.121 -0.5182 -0.5715  0.5420
12091SOL    HW237694   7.477   6.002   3.047 -1.5426 -0.3861  2.2851
12092SOL     OW37695   5.031   3.712   6.337  0.3504  0.3435 -0.2417
12092SOL    HW137696   4.973   3.637   6.319  1.7311 -0.2669 -2.5141
12092SOL    HW237697   4.973   3.779   6.374 -1.9580 -0.0369 -2.8746
12093SOL     OW37698   1.349   4.996   4.104 -0.0548  0.2459  0.2805
12093SOL    HW137699   1.420   5.014   4.042 -1.8481  0.2125 -1.8918
12093SOL    HW237700   1.393   4.992   4.190  2.8071 -1.3000 -1.1053
12094SOL     OW37701   6.084   4.726   4.988  0.3265 -0.1449 -0.4168
12094SOL    HW137702   6.068   4.821   4.994 -0.4828 -0.3676  2.4366
12094SOL    HW237703   6.176   4.719   4.963  0.3941  1.4001 -0.7337
12095SOL     OW37704   1.344   6.223   2.960 -0.3583 -0.1039 -0.0697
12095SOL    HW137705   1.251   6.205   2.971 -1.2653  2.8515 -1.6602
12095SOL    HW237706   1.360   6.302   3.011  1.1000 -0.1071 -0.4683
12096SOL     OW37707   0.735   2.704   6.547 -0.1021  0.0054 -0.2150
12096SOL    HW137708   0.645   2.697   6.577 -0.6783  0.7599 -1.6591
12096SOL    HW237709   0.742   2.792   6.511  0.9425 -0.3551 -0.9600
12097SOL     OW37710   7.959   6.692   2.666 -0.2711 -0.0164  0.9510
12097SOL    HW137711   7.938   6.603   2.639  1.7082 -0.1935 -0.1591
12097SOL    HW237712   8.054   6.694   2.671 -0.2499  2.1731  0.4977
12098SOL     OW37713   5.452   4.897   5.899  0.8563  0.3025  0.0599
12098SOL    HW137714   5.467   4.987   5.929 -0.0200  0.4495  0.1058
12098SOL    HW237715   5.414   4.908   5.812 -0.7789  0.0755  0.6905
12099SOL     OW37716   1.038   2.752   3.255 -0.1640  0.1264  0.4257
12099SOL    HW137717   1.061   2.722   3.167 -0.7184 -0.2314  0.4030
12099SOL    HW237718   1.120   2.788   3.290  0.4174 -1.0522  0.3152
12100SOL     OW37719   4.346   6.974   1.170 -0.0300 -0.0318  0.6460
12100SOL    HW137720   4.321   6.882   1.179  0.8378 -0.0939  3.3572
12100SOL    HW237721   4.309   7.017   1.247  0.9499  1.5470  0.2840
12101SOL     OW37722   1.054   4.538   2.091 -0.2225  0.4097 -0.3024
12101SOL    HW137723   0.967   4.562   2.061  0.0483 -0.0679 -1.5358
12101SOL    HW237724   1.067   4.588   2.171 -1.8745  0.0121  0.2501
12102SOL     OW37725   0.091   1.890   1.735  0.1712  0.2059 -0.4082
12102SOL    HW137726   0.025   1.824   1.716  1.1208 -0.7776 -0.3914
12102SOL    HW237727   0.175   1.847   1.716  1.2265 -0.3810  4.2909
12103SOL     OW37728   4.922   1.373   6.129  0.5073  0.5264 -0.4231
12103SOL    HW137729   4.969   1.337   6.053 -1.8391 -0.1654 -1.6609
12103SOL    HW237730   4.864   1.302   6.156  0.2307  1.2969  1.1132
12104SOL     OW37731   5.386   0.463   5.112 -0.0464  0.4976 -0.4874
12104SOL    HW137732   5.367   0.485   5.022  0.0284 -1.2827 -0.9904
12104SOL    HW237733   5.468   0.508   5.132  0.5034  0.0480 -1.6777
12105SOL     OW37734   7.795   6.022   4.588  0.2940 -0.1532  0.8450
12105SOL    HW137735   7.809   6.028   4.493 -2.9578  1.2790  0.2998
12105SOL    HW237736   7.733   6.093   4.607 -0.1911 -1.2441  3.8150
12106SOL     OW37737   3.318   7.453   6.912 -0.4524 -0.1910  0.2242
12106SOL    HW137738   3.231   7.441   6.949 -0.5276  1.0308  0.4787
12106SOL    HW237739   3.369   7.379   6.945 -0.3519  1.0948  3.2762
12107SOL     OW37740   3.883   4.634   7.329  0.4144 -0.4258  0.3650
12107SOL    HW137741   3.905   4.695   7.399  0.2330  0.2544 -0.1695
12107SOL    HW237742   3.796   4.602   7.351  0.2856 -0.0802  0.3549
12108SOL     OW37743   2.793   1.920   1.224 -0.8008 -0.1317 -0.7908
12108SOL    HW137744   2.707   1.891   1.257 -0.6547 -0.6654 -0.8664
12108SOL    HW237745   2.777   2.008   1.190 -1.4045 -0.3719 -1.1516
12109SOL     OW37746   2.284   3.462   4.771 -0.4189 -0.0550 -0.1493
12109SOL    HW137747   2.273   3.539   4.828  0.8619  0.2460 -0.2939
12109SOL    HW237748   2.194   3.435   4.751 -0.9297  1.9144 -0.7637
12110SOL     OW37749   2.262   0.667   6.746 -0.4217 -0.0704 -0.9142
12110SOL    HW137750   2.279   0.758   6.722  0.0074 -0.2121 -1.1583
12110SOL    HW237751   2.190   0.672   6.808 -0.6125  0.4119 -1.1693
12111SOL     OW37752   6.028   6.465   6.708 -0.1952  0.4498 -0.3929
12111SOL    HW137753   6.008   6.377   6.740 -2.0475  1.0118  0.1548
12111SOL    HW237754   6.080   6.451   6.629 -1.1574 -1.1818 -0.7998
12112SOL     OW37755   7.681   0.089   0.375  0.3500  0.1227 -0.4368
12112SOL    HW137756   7.739   0.014   0.387 -1.0369 -0.8793  0.1920
12112SOL    HW237757   7.671   0.126   0.462 -0.0947  0.1890 -0.5151
12113SOL     OW37758   6.708   3.820   7.913 -0.2700  0.0780  0.3061
12113SOL    HW137759   6.723   3.796   7.821  1.8412  0.9522  0.3571
12113SOL    HW237760   6.667   3.906   7.909  2.1020  1.2966  0.0970
12114SOL     OW37761   3.076   4.915   3.540 -0.1671 -0.1515 -0.0614
12114SOL    HW137762   3.007   4.981   3.537 -0.4387 -0.3982  0.7037
12114SOL    HW237763   3.031   4.832   3.523 -0.0327 -0.2952  0.2753
12115SOL     OW37764   3.660   2.436   5.342  0.0206 -0.1802  0.0825
12115SOL    HW137765   3.666   2.416   5.435 -0.7092  0.7474  0.3380
12115SOL    HW237766   3.749   2.421   5.309 -0.0179 -1.8103  0.6412
12116SOL     OW37767   4.815   7.252   6.021  0.1760 -0.0138  0.2421
12116SOL    HW137768   4.776   7.310   6.087 -2.4784 -1.0189 -0.3058
12116SOL    HW237769   4.848   7.178   6.072 -0.4249 -0.0520  0.5954
12117SOL     OW37770   2.711   7.901   0.027 -0.2503  0.2636 -0.4752
12117SOL    HW137771   2.677   7.872  -0.058 -1.4879  0.9001 -0.2044
12117SOL    HW237772   2.740   7.991   0.012  1.1530 -0.1786 -0.6371
12118SOL     OW37773   1.646   0.631   0.760  0.0730  0.1101  0.3460
12118SOL    HW137774   1.735   0.603   0.738 -0.0201 -0.4935  0.7261
12118SOL    HW237775   1.593   0.606   0.684 -0.1047 -1.2411  0.8989
12119SOL     OW37776   2.249   6.447   2.247  0.3398 -0.0948  0.2329
12119SOL    HW137777   2.166   6.469   2.288  1.0026  2.9848  0.1314
12119SOL    HW237778   2.301   6.527   2.253  3.1656 -1.7767 -0.1065
12120SOL     OW37779   6.306   0.863   1.636  0.1298 -0.1548  0.3837
12120SOL    HW137780   6.233   0.900   1.685 -0.9644 -0.1821 -1.1277
12120SOL    HW237781   6.299   0.769   1.651  0.9313 -0.0357  1.6202
12121SOL     OW37782   0.180   4.542   3.544  0.3216  0.3698 -0.1277
12121SOL    HW137783   0.128   4.509   3.470  1.0067 -1.7791  0.2695
12121SOL    HW237784   0.122   4.533   3.620  1.2199 -2.2516  0.3547
12122SOL     OW37785   6.293   1.289   3.688 -0.1087  0.2859  0.4873
12122SOL    HW137786   6.291   1.368   3.633 -1.7569  0.5279  0.8604
12122SOL    HW237787   6.297   1.322   3.778 -2.6127  0.0431  0.7488
12123SOL     OW37788   1.346   6.044   7.560  0.6113  0.1705  0.3100
12123SOL    HW137789   1.298   6.004   7.488 -2.1256  0.6367  1.7324
12123SOL    HW237790   1.373   5.971   7.615 -0.2110 -0.0149  0.4805
12124SOL     OW37791   2.325   1.619   6.433  0.2553 -0.0720  0.5223
12124SOL    HW137792   2.410   1.590   6.468  0.9612 -1.0887 -1.7973
12124SOL    HW237793   2.283   1.538   6.403 -1.0170  0.5587  0.5391
12125SOL     OW37794   7.020   7.828   4.716 -0.1368 -0.1217 -0.6287
12125SOL    HW137795   7.009   7.876   4.798 -0.2166 -0.2589 -0.5579
12125SOL    HW237796   7.051   7.741   4.743  2.4416  0.6386 -0.8836
12126SOL     OW37797   7.989   6.979   4.021  0.4394  0.2172  0.6825
12126SOL    HW137798   7.941   6.942   4.094  0.9320 -1.6154  0.1359
12126SOL    HW237799   7.936   6.960   3.944  0.0873  1.8263  0.4938
12127SOL     OW37800   0.372   4.756   8.056 -0.0261 -0.2686  0.1353
12127SOL    HW137801   0.378   4.773   7.962  0.8856  0.6908  0.3348
12127SOL    HW237802   0.278   4.756   8.075 -0.1898  0.9431 -0.5589
12128SOL     OW37803   5.390   7.360   2.526  0.0729 -0.3730  0.0784
12128SOL    HW137804   5.334   7.367   2.449  0.5652 -1.2120 -0.3766
12128SOL    HW237805   5.329   7.349   2.599 -0.4371  1.6036 -0.0092
12129SOL     OW37806   7.592   2.397   5.144  0.1577 -0.2672 -0.3157
12129SOL    HW137807   7.543   2.354   5.074 -0.3079 -0.3658  0.0692
12129SOL    HW237808   7.590   2.334   5.216  0.2404  0.0273 -0.0555
12130SOL     OW37809   7.207   7.035   5.326 -0.2013 -0.1676 -0.2508
12130SOL    HW137810   7.295   7.068   5.307  0.7115 -1.4888  1.3697
12130SOL    HW237811   7.175   7.093   5.395 -0.8201  0.5927 -1.1539
12131SOL     OW37812   4.561   4.202   7.828  0.5939 -0.0327  0.2120
12131SOL    HW137813   4.485   4.146   7.846  0.0775  0.3050 -0.8508
12131SOL    HW237814   4.570   4.200   7.733  1.4445  0.5667  0.2732
12132SOL     OW37815   6.304   5.319   2.339  0.4235  0.2792  0.0868
12132SOL    HW137816   6.218   5.353   2.362  0.8284  1.5784 -0.2219
12132SOL    HW237817   6.342   5.292   2.423 -0.6275 -1.1812  0.1074
12133SOL     OW37818   6.654   5.508   6.984 -0.0720  0.2457  0.4598
12133SOL    HW137819   6.666   5.547   6.898 -0.3235 -0.4908  0.0801
12133SOL    HW237820   6.680   5.576   7.046  0.2199  0.7396 -0.2019
12134SOL     OW37821   3.947   2.167   4.847  0.3202 -0.2242 -0.1497
12134SOL    HW137822   3.958   2.154   4.941  1.5159 -1.4683 -0.4303
12134SOL    HW237823   3.990   2.251   4.829  1.6618 -0.8075  0.1773
12135SOL     OW37824   7.111   5.096   7.502 -0.3561  0.6340 -0.3674
12135SOL    HW137825   7.196   5.141   7.497 -0.2697  0.7028  1.3042
12135SOL    HW237826   7.058   5.151   7.560 -0.1159 -1.5809  2.1051
12136SOL     OW37827   2.757   0.931   0.920  0.4185  0.0483  0.4268
12136SOL    HW137828   2.735   0.857   0.977 -3.0480 -1.1932 -2.1537
12136SOL    HW237829   2.726   1.008   0.968 -0.9653 -0.7923  0.9492
12137SOL     OW37830   7.873   1.789   5.705  0.1174  0.6986  0.3911
12137SOL    HW137831   7.918   1.771   5.622 -0.7709 -1.8769  0.3761
12137SOL    HW237832   7.933   1.846   5.752  2.8153 -1.3824 -0.2323
12138SOL     OW37833   4.369   2.978   1.782 -0.5015  0.1366  0.2111
12138SOL    HW137834   4.414   2.900   1.814  0.2068  0.0040 -1.0305
12138SOL    HW237835   4.276   2.957   1.788 -0.3519 -2.1188 -2.9962
12139SOL     OW37836   3.245   5.900   6.187  0.5672  0.6642  0.0251
12139SOL    HW137837   3.158   5.866   6.205  1.2247 -0.5414  1.0955
12139SOL    HW237838   3.303   5.824   6.196  1.7535  1.4828 -0.4454
12140SOL     OW37839   8.041   7.265   6.218  0.2063  0.2346 -0.1890
12140SOL    HW137840   8.069   7.198   6.280  1.0154  0.5703 -0.1674
12140SOL    HW237841   8.010   7.217   6.142  1.7131 -0.1779 -0.5760
12141SOL     OW37842   0.334   4.211   5.993 -0.0671 -0.4606 -0.5614
12141SOL    HW137843   0.256   4.263   6.016 -1.1699 -2.0814 -0.4615
12141SOL    HW237844   0.398   4.233   6.061 -0.6351  0.4532 -0.2954
12142SOL     OW37845   6.748   7.173   5.163 -0.0911  0.6814 -0.0379
12142SOL    HW137846   6.758   7.102   5.098 -0.1359  1.3598 -0.8016
12142SOL    HW237847   6.664   7.155   5.205 -1.1772  1.4682 -1.7582
12143SOL     OW37848   7.408   1.612   6.586  0.1689 -0.3354 -0.8021
12143SOL    HW137849   7.336   1.654   6.635  0.8635 -0.7675  0.6368
12143SOL    HW237850   7.378   1.523   6.571  0.8347 -0.8721  0.8316
12144SOL     OW37851   4.004   3.637   5.176 -0.2415 -0.4402 -0.1915
12144SOL    HW137852   3.922   3.589   5.161 -1.6698  1.1797  1.6782
12144SOL    HW237853   4.073   3.579   5.145 -2.1360 -1.2705 -3.2829
12145SOL     OW37854   3.383   3.951   4.330  0.0529  1.0305  0.3986
12145SOL    HW137855   3.375   3.941   4.236 -0.5906  0.4507  0.5047
12145SOL    HW237856   3.467   3.996   4.343  1.1477 -0.6885 -0.3565
12146SOL     OW37857   5.326   1.723   1.606 -0.1211  0.0747  0.2262
12146SOL    HW137858   5.254   1.677   1.649 -0.6443 -0.4102 -1.1010
12146SOL    HW237859   5.296   1.734   1.515  0.8632  1.1998  0.0159
12147SOL     OW37860   1.613   6.862   6.949 -0.2268 -0.1297 -0.1087
12147SOL    HW137861   1.563   6.840   6.871  0.9755  0.6179 -1.1122
12147SOL    HW237862   1.547   6.867   7.019 -1.3655 -0.3946 -1.1348
12148SOL     OW37863   6.551   6.238   2.326 -0.1717  0.1680  0.0755
12148SOL    HW137864   6.477   6.185   2.298 -0.2605 -0.1286  0.8473
12148SOL    HW237865   6.581   6.282   2.247 -0.3688 -0.7070 -0.4944
12149SOL     OW37866   4.464   5.285   0.080 -0.6039 -0.4112  0.2418
12149SOL    HW137867   4.462   5.192   0.101 -0.0893 -0.4332  0.2041
12149SOL    HW237868   4.547   5.316   0.116  0.1458 -0.3774 -1.4200
12150SOL     OW37869   0.954   6.759   6.778 -0.1392  0.1860  0.3668
12150SOL    HW137870   0.933   6.673   6.814  0.0458 -0.2408 -0.5217
12150SOL    HW237871   0.877   6.783   6.727 -0.1497  0.5048  0.5342
12151SOL     OW37872   7.569   4.688   1.103 -0.5811  0.0466 -0.3070
12151SOL    HW137873   7.557   4.597   1.078 -0.0801  0.6993 -3.2649
12151SOL    HW237874   7.612   4.684   1.189 -0.1273 -2.4975 -0.5815
12152SOL     OW37875   4.016   1.857   0.179 -0.3148  0.3415  0.0536
12152SOL    HW137876   4.068   1.927   0.139  0.0613  1.4241  2.2918
12152SOL    HW237877   3.937   1.902   0.211 -0.8987 -0.6026 -0.0348
12153SOL     OW37878   5.979   2.592   6.545 -0.3937  0.1457  0.7948
12153SOL    HW137879   6.035   2.663   6.577  0.9044  0.4817 -1.8750
12153SOL    HW237880   5.999   2.518   6.602  1.7064  0.7013  0.8750
12154SOL     OW37881   6.813   5.253   1.874 -0.1702 -0.6330 -0.1089
12154SOL    HW137882   6.761   5.321   1.831 -1.1028 -1.4196 -0.2510
12154SOL    HW237883   6.774   5.243   1.961 -0.5133 -1.4850 -0.3458
12155SOL     OW37884   3.425   1.570   4.495 -0.0965  0.3849 -0.1264
12155SOL    HW137885   3.396   1.496   4.548 -0.6286 -0.1236 -1.0920
12155SOL    HW237886   3.478   1.623   4.554  0.9007 -1.1386  0.4028
12156SOL     OW37887   0.251   1.234   2.410 -0.5577 -0.1812  0.1562
12156SOL    HW137888   0.308   1.279   2.473 -2.2765  2.6798 -0.1572
12156SOL    HW237889   0.287   1.256   2.324 -0.7776 -0.3603  0.0148
12157SOL     OW37890   4.733   4.513   3.741 -0.3122  0.0687 -0.2965
12157SOL    HW137891   4.733   4.424   3.777 -0.6288  0.4941  0.7899
12157SOL    HW237892   4.663   4.558   3.788 -0.4569  0.7716 -1.1611
12158SOL     OW37893   3.014   4.694   2.708 -0.1117 -0.1363  0.0639
12158SOL    HW137894   3.015   4.790   2.706  3.0824 -0.0417 -1.4697
12158SOL    HW237895   2.924   4.671   2.729 -1.0031  3.1898  0.4685
12159SOL     OW37896   1.996   7.558   0.972 -0.0846  0.1882 -0.2100
12159SOL    HW137897   1.904   7.551   0.995  0.5856 -1.0149  2.4700
12159SOL    HW237898   2.033   7.472   0.994  1.4345  0.0581 -2.7786
12160SOL     OW37899   6.554   0.868   3.689  0.0234  0.1009  0.1716
12160SOL    HW137900   6.474   0.895   3.644  0.6655  1.6950 -0.0730
12160SOL    HW237901   6.530   0.872   3.782 -0.1148  0.8080  0.1102
12161SOL     OW37902   4.124   7.546   1.606  0.1934  0.1315  0.5607
12161SOL    HW137903   4.172   7.605   1.663  0.7163 -1.6020  2.0056
12161SOL    HW237904   4.182   7.471   1.594 -0.6026 -0.3075 -0.8810
12162SOL     OW37905   1.329   4.500   6.470 -0.2542 -0.1491 -0.4537
12162SOL    HW137906   1.299   4.465   6.387 -0.5225 -0.5570 -0.1856
12162SOL    HW237907   1.417   4.465   6.481 -1.6288 -3.4571  1.3329
12163SOL     OW37908   1.696   7.706   6.283  0.0763  0.1686  0.2037
12163SOL    HW137909   1.647   7.789   6.285  3.2237  2.2202  3.1046
12163SOL    HW237910   1.682   7.668   6.370 -0.2814 -1.7764 -0.6545
12164SOL     OW37911   5.989   1.146   2.424 -0.9552  0.0021 -0.1990
12164SOL    HW137912   5.942   1.063   2.416 -0.1075 -0.8847  2.7319
12164SOL    HW237913   5.921   1.210   2.443 -1.5692 -0.0419 -2.0475
12165SOL     OW37914   1.724   7.233   4.522 -0.0798  0.3804  0.0048
12165SOL    HW137915   1.687   7.147   4.539  0.3420  0.1175 -0.3853
12165SOL    HW237916   1.681   7.291   4.585 -0.1088 -0.1799  0.5039
12166SOL     OW37917   7.998   2.811   0.945  0.2717 -0.4075  0.2500
12166SOL    HW137918   8.004   2.907   0.945 -2.1815 -0.1785 -1.3324
12166SOL    HW237919   8.026   2.785   0.857 -3.3418 -0.6418 -1.0006
12167SOL     OW37920   7.828   1.242   3.117 -0.3129  0.7759 -0.5516
12167SOL    HW137921   7.837   1.222   3.210  0.3166 -0.1713 -0.8005
12167SOL    HW237922   7.798   1.333   3.115 -1.0810  0.5768  0.5873
12168SOL     OW37923   4.037   6.016   3.810  0.6831 -0.7905 -0.0626
12168SOL    HW137924   4.084   6.077   3.868  1.7037 -1.3542 -0.2654
12168SOL    HW237925   3.947   6.047   3.811  1.0787  0.4118  0.2511
12169SOL     OW37926   0.414   5.735   6.215 -0.3040 -0.1904  0.1241
12169SOL    HW137927   0.381   5.800   6.152  1.2217  0.1516 -0.3654
12169SOL    HW237928   0.487   5.780   6.258 -0.2165 -1.0543  0.8897
12170SOL     OW37929   2.878   4.853   7.942  0.4974  0.2106 -0.1903
12170SOL    HW137930   2.951   4.913   7.925  0.4616  0.6968  1.1796
12170SOL    HW237931   2.813   4.873   7.875  0.5362  1.6657  0.1724
12171SOL     OW37932   6.965   1.240   3.110  0.0681  0.1401  0.6430
12171SOL    HW137933   7.042   1.242   3.167  0.4214 -1.2106  0.2520
12171SOL    HW237934   6.902   1.185   3.157 -1.3050  2.4316  1.6781
12172SOL     OW37935   4.610   3.955   6.937 -0.4708  0.1576 -0.0894
12172SOL    HW137936   4.519   3.961   6.908 -0.8819  1.6772  1.3081
12172SOL    HW237937   4.654   4.029   6.894  0.6196 -1.6493 -2.2548
12173SOL     OW37938   4.815   5.850   7.883 -0.1272  0.1144 -0.2610
12173SOL    HW137939   4.730   5.848   7.927  0.4705 -1.4739  0.8929
12173SOL    HW237940   4.871   5.901   7.942 -0.0092  0.2756 -0.5127
12174SOL     OW37941   3.746   8.037   3.862 -0.1329 -0.4044 -0.2962
12174SOL    HW137942   3.814   8.091   3.900 -0.8074 -0.0756  0.4686
12174SOL    HW237943   3.769   8.031   3.769  2.1100 -2.0983  0.2897
12175SOL     OW37944   0.679   3.353   4.704 -0.0197  0.3726 -0.0445
12175SOL    HW137945   0.588   3.357   4.733  0.3685  2.1700  1.0700
12175SOL    HW237946   0.720   3.288   4.761 -0.5881 -0.4879 -0.5910
12176SOL     OW37947   7.663   0.344   6.164 -0.7313  0.2386 -0.0393
12176SOL    HW137948   7.606   0.284   6.116 -0.2110  0.4046 -0.8862
12176SOL    HW237949   7.687   0.296   6.244  1.0682 -1.4409 -1.4717
12177SOL     OW37950   6.034   4.471   5.086 -0.1373 -0.2224 -0.4075
12177SOL    HW137951   6.109   4.423   5.049  1.2909 -0.0866  2.1200
12177SOL    HW237952   6.040   4.558   5.046  1.2084 -0.1533 -0.1234
12178SOL     OW37953   0.952   6.074   5.311  0.5216  0.4647  0.3688
12178SOL    HW137954   0.871   6.037   5.277  1.1145  1.0586 -1.8586
12178SOL    HW237955   0.980   6.137   5.244  1.4466  2.2530  2.3159
12179SOL     OW37956   2.960   1.414   2.860  0.1475  0.1412 -0.5100
12179SOL    HW137957   2.906   1.352   2.812 -0.3686 -1.1150  1.5499
12179SOL    HW237958   3.047   1.375   2.860 -0.1167 -0.4998  0.5448
12180SOL     OW37959   1.428   6.718   7.661  0.0028  0.0933 -0.4223
12180SOL    HW137960   1.410   6.780   7.731  0.6263  0.2821 -0.4224
12180SOL    HW237961   1.472   6.769   7.593 -1.0368  0.0200 -1.1805
12181SOL     OW37962   7.313   4.859   5.987 -0.2004 -0.2064 -0.2100
12181SOL    HW137963   7.399   4.830   6.017 -0.1661 -0.0002 -0.1062
12181SOL    HW237964   7.251   4.822   6.050 -0.2927 -1.3029 -0.9224
12182SOL     OW37965   3.185   2.108   6.952 -0.2934 -0.2305  0.0377
12182SOL    HW137966   3.225   2.022   6.962 -0.0641 -0.3736 -1.7587
12182SOL    HW237967   3.091   2.091   6.952 -0.2668 -0.3876  0.3096
12183SOL     OW37968   0.767   7.172   1.095 -0.0455  0.1746  0.0420
12183SOL    HW137969   0.833   7.152   1.030  0.6418  1.5275  0.2817
12183SOL    HW237970   0.816   7.198   1.173 -0.8423 -1.6355  1.2183
12184SOL     OW37971   2.576   2.116   3.984  0.4870  0.0560  0.8690
12184SOL    HW137972   2.567   2.046   4.049 -0.3053  0.1633  0.8756
12184SOL    HW237973   2.504   2.101   3.922 -0.2415  1.3942  1.3648
12185SOL     OW37974   2.923   3.242   7.020  0.8725 -0.6250  0.2506
12185SOL    HW137975   2.883   3.258   7.105  0.4234 -0.0454 -0.0645
12185SOL    HW237976   2.930   3.147   7.014  2.3528 -0.6518  1.6020
12186SOL     OW37977   2.088   2.757   4.554  1.0390  0.6974  0.0945
12186SOL    HW137978   2.021   2.753   4.486  1.2109 -1.1416 -0.0078
12186SOL    HW237979   2.167   2.786   4.508  1.0385 -0.0742 -0.4110
12187SOL     OW37980   5.410   0.245   3.098 -0.6705 -0.1688  0.3413
12187SOL    HW137981   5.360   0.200   3.165 -0.4239 -0.9052  0.0474
12187SOL    HW237982   5.502   0.229   3.121 -0.5650  0.8333  0.6565
12188SOL     OW37983   3.026   6.889   1.743 -0.0132 -0.5383  0.4431
12188SOL    HW137984   2.956   6.936   1.788 -0.1402  1.2425 -1.4439
12188SOL    HW237985   2.983   6.849   1.667  0.7320 -0.6907  0.0913
12189SOL     OW37986   7.064   2.767   4.316  0.4705 -0.6956  0.1425
12189SOL    HW137987   7.030   2.683   4.287  0.8893 -0.8642  0.1393
12189SOL    HW237988   7.099   2.750   4.403 -1.8973  0.0647  1.3443
12190SOL     OW37989   1.231   2.104   5.993 -0.1887  0.3676 -0.3534
12190SOL    HW137990   1.319   2.118   5.961 -0.1952  0.5549 -0.2890
12190SOL    HW237991   1.191   2.044   5.930  0.4435 -0.8604  0.3824
12191SOL     OW37992   5.832   3.078   4.358 -0.0922  0.3979 -0.0183
12191SOL    HW137993   5.820   3.100   4.265  0.8879  2.1190  0.2070
12191SOL    HW237994   5.786   2.995   4.369 -0.2908  0.1785 -2.0259
12192SOL     OW37995   1.255   3.181   5.996 -0.1188  0.0530  0.1671
12192SOL    HW137996   1.337   3.174   6.044  0.7635 -1.0127 -1.3994
12192SOL    HW237997   1.278   3.161   5.906 -2.0651 -0.0335 -0.3632
12193SOL     OW37998   0.448   1.911   0.515 -0.5682  0.0645  0.1787
12193SOL    HW137999   0.476   1.947   0.431  1.0329  0.4195  0.8432
12193SOL    HW238000   0.526   1.872   0.553 -1.3083 -0.2646  1.4403
12194SOL     OW38001   6.141   0.095   0.049  0.0170  0.1032 -0.1280
12194SOL    HW138002   6.128   0.016   0.102  0.8524 -0.6431 -0.9888
12194SOL    HW238003   6.208   0.145   0.097 -1.0688  0.7097  0.8269
12195SOL     OW38004   4.262   6.702   1.221  0.6251 -0.0094  0.6197
12195SOL    HW138005   4.169   6.719   1.239  0.0386  0.2180 -2.1028
12195SOL    HW238006   4.270   6.607   1.222 -0.1375 -0.1315 -0.9109
12196SOL     OW38007   5.744   5.177   1.304  0.1107 -0.2878  0.2953
12196SOL    HW138008   5.716   5.142   1.219  0.6347  0.3160 -0.1364
12196SOL    HW238009   5.831   5.141   1.317  0.8491  1.1740 -0.3736
12197SOL     OW38010   0.619   1.310   0.608 -0.6697  0.1787  0.1239
12197SOL    HW138011   0.602   1.344   0.520  0.1264  1.3139  0.3867
12197SOL    HW238012   0.700   1.260   0.599 -2.4116 -2.7564 -0.5065
12198SOL     OW38013   1.423   6.483   4.377  0.2273  0.3455 -0.3432
12198SOL    HW138014   1.500   6.531   4.407  0.5849 -0.2587 -0.2765
12198SOL    HW238015   1.413   6.412   4.441 -1.1107  1.1108  0.3562
12199SOL     OW38016   1.900   5.090   5.402  0.3072  0.2819 -0.3857
12199SOL    HW138017   1.985   5.076   5.361  0.5228  0.4893 -0.0158
12199SOL    HW238018   1.845   5.127   5.332  0.6774  0.6635 -0.4773
12200SOL     OW38019   7.098   0.728   3.357  0.2910  0.2984 -0.1001
12200SOL    HW138020   7.132   0.782   3.428  1.2825 -0.1896 -0.1891
12200SOL    HW238021   7.057   0.653   3.402  0.5286  0.2109 -0.0278
12201SOL     OW38022   3.873   0.571   6.484  0.1426  0.1415 -0.1347
12201SOL    HW138023   3.797   0.518   6.459  0.7657 -0.5724 -0.5840
12201SOL    HW238024   3.911   0.524   6.558  0.2424  0.3997 -0.0238
12202SOL     OW38025   7.167   2.574   2.740 -0.1247 -0.3329  0.1494
12202SOL    HW138026   7.226   2.602   2.810 -0.2745  0.3112  0.0188
12202SOL    HW238027   7.198   2.620   2.663  0.8275 -1.9781 -0.5199
12203SOL     OW38028   2.241   3.315   2.401  0.1897 -0.0358  0.0581
12203SOL    HW138029   2.252   3.401   2.441  0.2005 -0.2075  0.4303
12203SOL    HW238030   2.211   3.259   2.473 -0.4282 -0.2037 -0.3235
12204SOL     OW38031   4.015   3.655   7.582 -0.1799 -0.7281 -0.1218
12204SOL    HW138032   3.939   3.608   7.617  0.6340 -1.8130  0.2755
12204SOL    HW238033   4.063   3.588   7.532  1.0761 -0.3680  0.5506
12205SOL     OW38034   6.372   6.697   6.589 -0.7180  0.2216 -0.5836
12205SOL    HW138035   6.277   6.707   6.589 -0.8050 -0.5449 -0.1829
12205SOL    HW238036   6.404   6.776   6.545 -1.4767  0.9633  0.1577
12206SOL     OW38037   4.985   7.996   4.925 -0.2704 -0.6409  0.6469
12206SOL    HW138038   4.997   7.914   4.875 -0.8650 -0.0899 -0.4325
12206SOL    HW238039   4.902   7.985   4.971  0.0875 -0.9911  1.2260
12207SOL     OW38040   5.862   4.431   3.836  0.3858  0.0423 -0.1379
12207SOL    HW138041   5.922   4.470   3.773  0.5737 -0.4368 -0.2581
12207SOL    HW238042   5.898   4.345   3.854  0.3743  0.2017  0.6846
12208SOL     OW38043   3.003   7.912   5.104  0.1966  0.1521 -0.4722
12208SOL    HW138044   2.943   7.887   5.174  0.3423  0.0898 -0.3677
12208SOL    HW238045   2.981   8.003   5.084  0.7434  0.4609  0.2750
12209SOL     OW38046   3.428   7.122   2.202  0.6059 -0.1618  0.6469
12209SOL    HW138047   3.345   7.159   2.170 -0.2091 -2.2963  0.0709
12209SOL    HW238048   3.449   7.173   2.280 -0.5762  1.2459  0.1032
12210SOL     OW38049   7.102   1.814   2.537  0.0382 -0.7405  0.4304
12210SOL    HW138050   7.014   1.830   2.502 -0.7376 -1.5708  1.9105
12210SOL    HW238051   7.160   1.856   2.474 -1.4992  1.5994  0.4339
12211SOL     OW38052   6.837   7.761   5.663 -0.7330  0.1438  0.3606
12211SOL    HW138053   6.757   7.768   5.716 -0.3024 -0.0401  1.0491
12211SOL    HW238054   6.806   7.729   5.578 -1.5640  1.3792  0.1625
12212SOL     OW38055   1.411   7.203   7.960  0.0943 -0.2825  0.2186
12212SOL    HW138056   1.495   7.180   8.001 -0.2538  0.5330  1.4352
12212SOL    HW238057   1.436   7.238   7.874  0.9842 -0.2456  0.4776
12213SOL     OW38058   6.523   6.639   3.471  0.4825 -0.2193  0.3210
12213SOL    HW138059   6.491   6.645   3.381  2.9805 -0.3875 -0.6506
12213SOL    HW238060   6.457   6.686   3.523  0.1193  1.9378 -1.9059
12214SOL     OW38061   3.027   3.643   6.289 -0.1269  0.0487 -0.1562
12214SOL    HW138062   3.028   3.717   6.349  0.3737 -1.0079  1.1871
12214SOL    HW238063   2.990   3.571   6.340 -0.7925 -0.5810 -1.4952
12215SOL     OW38064   4.759   1.042   6.485  0.2659  0.1351 -0.3733
12215SOL    HW138065   4.801   0.957   6.474  0.5545  0.2115  0.1383
12215SOL    HW238066   4.822   1.095   6.533  0.5670  1.0229 -1.7146
12216SOL     OW38067   6.786   5.957   2.708 -0.1238  0.0989 -0.4140
12216SOL    HW138068   6.819   6.022   2.770  1.3035 -1.0204  0.0746
12216SOL    HW238069   6.785   6.002   2.623  1.2754  0.6427 -0.1656
12217SOL     OW38070   0.868   6.253   6.920  0.2443 -0.0897 -0.1007
12217SOL    HW138071   0.853   6.218   6.832 -2.6119  0.1019  0.1971
12217SOL    HW238072   0.817   6.197   6.978  0.2971  1.0776  1.1437
12218SOL     OW38073   3.751   3.180   7.387  0.0104 -0.0092  0.2976
12218SOL    HW138074   3.711   3.098   7.415  0.2150 -0.4640 -0.7040
12218SOL    HW238075   3.713   3.198   7.302  1.6045 -0.2438 -0.5027
12219SOL     OW38076   0.766   0.555   7.037  0.0277  0.6612  0.6422
12219SOL    HW138077   0.717   0.609   7.099 -0.9500  3.1304 -2.0592
12219SOL    HW238078   0.720   0.471   7.037 -0.4165  0.8460  2.5775
12220SOL     OW38079   2.952   0.867   2.597  0.3377  0.3931 -0.4123
12220SOL    HW138080   2.975   0.786   2.641 -0.1609  0.8648  0.7717
12220SOL    HW238081   3.001   0.866   2.515 -0.1000 -1.3533 -0.6725
12221SOL     OW38082   5.499   3.948   7.803 -0.5029 -0.0398 -0.2831
12221SOL    HW138083   5.565   3.887   7.772  0.0551  1.3597 -1.9673
12221SOL    HW238084   5.548   4.022   7.839 -1.1633 -0.0054  0.6036
12222SOL     OW38085   6.294   4.829   1.683 -0.2052 -0.1246  0.4475
12222SOL    HW138086   6.296   4.744   1.727  1.8335  0.5002  1.6691
12222SOL    HW238087   6.374   4.832   1.632 -0.8183  0.6296 -0.5093
12223SOL     OW38088   7.698   3.872   0.457  0.7883  0.5818  0.1205
12223SOL    HW138089   7.654   3.847   0.538 -1.5530  0.3345 -1.1680
12223SOL    HW238090   7.732   3.790   0.421 -0.4035  0.3072 -0.4027
12224SOL     OW38091   1.107   3.086   2.609  0.1772  0.2834 -0.3356
12224SOL    HW138092   1.094   3.032   2.531 -0.1016  0.7549 -0.6265
12224SOL    HW238093   1.155   3.163   2.577  0.3279  0.3368  0.0161
12225SOL     OW38094   6.606   1.449   1.037 -0.2045 -0.6610  0.3996
12225SOL    HW138095   6.646   1.452   1.124 -0.1217 -0.5185  0.3570
12225SOL    HW238096   6.655   1.514   0.986  2.0074 -2.9895 -0.6854
12226SOL     OW38097   3.976   4.799   2.435  0.0609  0.2388 -0.6025
12226SOL    HW138098   3.901   4.836   2.388 -0.6044  1.0199  0.9830
12226SOL    HW238099   3.941   4.723   2.481  0.2099  0.6054  0.1432
12227SOL     OW38100   4.560   7.229   7.642  0.0585 -0.7108 -0.1145
12227SOL    HW138101   4.572   7.275   7.558 -1.5985 -0.9045 -0.4840
12227SOL    HW238102   4.477   7.182   7.632 -2.2719  2.2860  2.9267
12228SOL     OW38103   4.592   1.878   2.367 -0.5051  0.4506  0.6478
12228SOL    HW138104   4.605   1.783   2.363  0.0472  0.5560 -0.6443
12228SOL    HW238105   4.667   1.913   2.320 -2.3081  1.3954 -1.6828
12229SOL     OW38106   5.338   7.103   6.394 -0.0673 -0.5468 -0.6867
12229SOL    HW138107   5.361   7.111   6.301 -0.7684  1.3220 -0.7347
12229SOL    HW238108   5.251   7.142   6.401 -0.3437 -1.3334  0.6512
12230SOL     OW38109   4.956   2.379   0.290 -0.5012  0.2912  0.7403
12230SOL    HW138110   4.878   2.331   0.263 -2.3247  1.8855  2.7668
12230SOL    HW238111   4.957   2.457   0.235  0.3777 -0.2607 -0.0633
12231SOL     OW38112   2.619   1.414   5.670 -0.1783 -0.1174  0.3422
12231SOL    HW138113   2.650   1.331   5.704  2.4085  0.2284 -0.9100
12231SOL    HW238114   2.636   1.477   5.741  0.4005 -0.2207  0.2968
12232SOL     OW38115   7.428   3.426   5.735 -0.5943 -0.1787  0.5203
12232SOL    HW138116   7.426   3.332   5.755  0.1068 -0.2675  0.1837
12232SOL    HW238117   7.516   3.454   5.759 -0.3730  0.1145 -0.5750
12233SOL     OW38118   6.513   1.775   5.875 -0.0355 -0.4328 -0.9098
12233SOL    HW138119   6.552   1.774   5.962  1.1332  1.7336 -1.3428
12233SOL    HW238120   6.449   1.704   5.877 -0.4219 -0.1220  1.8583
12234SOL     OW38121   7.710   3.904   0.987 -0.2254 -0.4260  0.2458
12234SOL    HW138122   7.741   3.816   0.963  0.4464  0.2866 -1.6666
12234SOL    HW238123   7.787   3.960   0.979 -0.4991  0.2789  2.0436
12235SOL     OW38124   0.635   6.095   0.886  0.0020 -0.2141 -0.2710
12235SOL    HW138125   0.606   6.121   0.974  2.5576  0.1841  0.5548
12235SOL    HW238126   0.686   6.170   0.854  0.2735 -0.8940 -1.5009
12236SOL     OW38127   4.071   6.476   2.646  0.2552 -0.4648  0.1971
12236SOL    HW138128   4.015   6.402   2.673  1.0672 -1.5866 -1.0567
12236SOL    HW238129   4.014   6.530   2.591  0.2807 -1.4768 -0.8764
12237SOL     OW38130   1.064   3.829   5.120 -0.0772 -0.6081 -0.3153
12237SOL    HW138131   0.994   3.787   5.070  1.0497 -0.1924 -2.3606
12237SOL    HW238132   1.132   3.762   5.127  0.7055  0.0465 -1.3993
12238SOL     OW38133   3.529   2.525   0.915 -0.4259  0.0887 -0.0700
12238SOL    HW138134   3.585   2.575   0.855  0.7307  0.2627  1.1184
12238SOL    HW238135   3.589   2.492   0.982 -1.5320 -0.9928  0.4115
12239SOL     OW38136   3.174   6.307   5.963 -0.3922 -0.0676  0.0051
12239SOL    HW138137   3.082   6.303   5.990 -0.7900 -1.0407 -1.3794
12239SOL    HW238138   3.170   6.326   5.870  0.8693  0.9334  0.1382
12240SOL     OW38139   3.246   5.944   4.393 -0.0323 -0.3200  0.1906
12240SOL    HW138140   3.155   5.931   4.417  0.1134 -0.4366  0.6948
12240SOL    HW238141   3.252   6.037   4.369 -0.0556 -0.0527  1.1883
12241SOL     OW38142   1.825   0.313   3.354  1.0789 -0.0954 -0.2884
12241SOL    HW138143   1.901   0.323   3.296  1.5541  1.2459  0.5213
12241SOL    HW238144   1.834   0.225   3.390  3.1505  0.5736  0.9898
12242SOL     OW38145   5.091   5.388   7.678  0.4732 -0.0097  0.8012
12242SOL    HW138146   5.085   5.463   7.737 -3.4654 -0.6634  1.4881
12242SOL    HW238147   5.051   5.419   7.597  0.5278 -0.8126  0.4654
12243SOL     OW38148   7.543   2.289   4.259  0.0723 -0.0249  0.1167
12243SOL    HW138149   7.540   2.258   4.350 -0.4763 -2.6559 -0.7031
12243SOL    HW238150   7.603   2.229   4.215 -0.8413  0.2350 -1.5722
12244SOL     OW38151   7.847   3.137   1.252 -0.4904 -0.3182 -0.1061
12244SOL    HW138152   7.768   3.116   1.203 -1.7553 -2.9738  2.7877
12244SOL    HW238153   7.825   3.217   1.301 -1.8185 -1.5375  1.3783
12245SOL     OW38154   2.986   1.598   1.791 -0.4979  0.2104 -0.2648
12245SOL    HW138155   3.060   1.657   1.807  0.5831 -0.7428 -1.6050
12245SOL    HW238156   2.917   1.632   1.849  1.2246  0.5947  1.7102
12246SOL     OW38157   5.963   7.546   0.301  0.0048 -0.1359 -0.3523
12246SOL    HW138158   5.874   7.559   0.334  0.8250  0.7997  1.6281
12246SOL    HW238159   5.964   7.454   0.272 -1.0996 -0.7267  1.3185
12247SOL     OW38160   5.174   2.671   6.933  0.6822 -0.2619 -0.5340
12247SOL    HW138161   5.145   2.756   6.900 -0.1774 -0.3227  0.0573
12247SOL    HW238162   5.248   2.691   6.991 -0.2511  0.2020  0.5256
12248SOL     OW38163   7.919   0.797   3.195 -0.0294 -0.2787 -0.3253
12248SOL    HW138164   7.831   0.806   3.160  0.5280 -0.8884 -1.9382
12248SOL    HW238165   7.965   0.740   3.134  1.0358 -1.3117  1.3455
12249SOL     OW38166   2.715   1.576   8.041 -0.6039  0.6092  0.0354
12249SOL    HW138167   2.658   1.650   8.021 -0.3324  0.6348 -0.6838
12249SOL    HW238168   2.803   1.607   8.020 -0.4884  0.0968 -0.2562
12250SOL     OW38169   2.707   7.181   7.950 -0.2123 -0.2184 -0.0946
12250SOL    HW138170   2.751   7.114   8.003 -0.0003 -0.0680 -0.0784
12250SOL    HW238171   2.772   7.206   7.885  0.2246  0.9824  0.7624
12251SOL     OW38172   3.418   3.311   7.951 -0.5928  0.4424  0.1793
12251SOL    HW138173   3.504   3.330   7.914 -0.6947 -0.6322 -0.6632
12251SOL    HW238174   3.395   3.226   7.915 -3.0196  1.7005 -1.5016
12252SOL     OW38175   3.153   2.400   5.964 -0.0975 -0.1990  0.4483
12252SOL    HW138176   3.217   2.403   5.892 -1.3718  1.1033 -0.6778
12252SOL    HW238177   3.207   2.386   6.042  1.3796 -1.1046 -0.6687
12253SOL     OW38178   2.795   6.095   5.728 -0.0928 -0.2081  0.0479
12253SOL    HW138179   2.884   6.082   5.761 -0.6979  0.5893  2.1495
12253SOL    HW238180   2.739   6.061   5.797 -1.4433  0.4591 -0.6796
12254SOL     OW38181   8.020   1.124   1.472 -0.4163  0.1581  0.1719
12254SOL    HW138182   8.100   1.152   1.429  0.8922  0.3277  2.5479
12254SOL    HW238183   8.023   1.028   1.467 -0.8676  0.1840 -1.0283
12255SOL     OW38184   5.010   1.752   0.627  0.5480 -0.2715 -0.4979
12255SOL    HW138185   5.025   1.695   0.702 -0.2313  0.1742  0.0005
12255SOL    HW238186   4.970   1.695   0.561 -1.5931 -0.0066  0.5176
12256SOL     OW38187   7.396   4.720   1.674  0.1076 -0.3227 -0.2579
12256SOL    HW138188   7.403   4.804   1.718  0.7584 -0.9703  0.9068
12256SOL    HW238189   7.427   4.656   1.738  1.0708 -1.3000 -1.6518
12257SOL     OW38190   2.839   5.034   2.934 -0.1149 -0.1585  0.4141
12257SOL    HW138191   2.899   4.980   2.884 -1.0887 -0.5414 -0.3651
12257SOL    HW238192   2.799   5.093   2.870 -0.6314  0.0302  0.8941
12258SOL     OW38193   4.786   5.454   7.530  0.0715  0.0669 -1.3456
12258SOL    HW138194   4.705   5.493   7.561  0.5997  0.5141 -0.4638
12258SOL    HW238195   4.850   5.525   7.533  0.1246  0.2118 -3.7590
12259SOL     OW38196   4.145   2.861   3.662  0.2390  0.4355 -0.3207
12259SOL    HW138197   4.076   2.904   3.611  1.1109  1.8408 -0.3627
12259SOL    HW238198   4.194   2.933   3.701  2.7663 -0.4318 -1.6751
12260SOL     OW38199   0.402   5.514   6.872 -0.0221  0.0619 -0.5523
12260SOL    HW138200   0.491   5.484   6.886 -0.2372  0.0084  0.8231
12260SOL    HW238201   0.399   5.600   6.913 -0.6987 -0.0963 -0.2581
12261SOL     OW38202   2.075   1.960   6.080  0.7036 -0.2130  0.0428
12261SOL    HW138203   2.114   1.941   5.994 -0.3054  0.2984 -0.5566
12261SOL    HW238204   2.098   1.885   6.134  1.0511 -0.7212 -0.7871
12262SOL     OW38205   5.416   6.540   4.172  0.0684 -0.5083  0.2285
12262SOL    HW138206   5.361   6.541   4.250  0.1724  1.6765  0.3430
12262SOL    HW238207   5.358   6.515   4.101 -1.3439  2.4218  0.2275
12263SOL     OW38208   2.209   3.928   7.742  0.6181 -0.0341 -0.1868
12263SOL    HW138209   2.279   3.865   7.754  1.1743  0.7332  0.7492
12263SOL    HW238210   2.221   3.963   7.653 -0.0812 -1.6673 -0.9604
12264SOL     OW38211   7.484   7.266   5.711 -0.0456  0.0329 -0.6365
12264SOL    HW138212   7.521   7.352   5.690 -0.7961  0.7169  0.7527
12264SOL    HW238213   7.517   7.247   5.798  2.2875 -2.3530 -1.8932
12265SOL     OW38214   2.094   5.206   5.183 -0.4102 -0.7323 -0.5895
12265SOL    HW138215   2.067   5.295   5.158 -1.2749 -0.5322  0.9468
12265SOL    HW238216   2.048   5.149   5.122 -2.6969 -0.2750  0.6297
12266SOL     OW38217   6.895   6.404   7.912 -0.0094 -0.1885  0.0891
12266SOL    HW138218   6.921   6.322   7.954  0.6243  0.0383  0.1469
12266SOL    HW238219   6.824   6.379   7.853 -0.1567 -0.6960  0.4724
12267SOL     OW38220   1.907   5.478   4.737 -0.0008 -0.1970 -0.3242
12267SOL    HW138221   1.843   5.500   4.805  0.3329 -0.8224  0.2022
12267SOL    HW238222   1.858   5.485   4.655 -0.6655 -0.3721  0.0494
12268SOL     OW38223   1.835   1.763   0.017 -0.8249 -0.0936  0.1060
12268SOL    HW138224   1.901   1.712   0.064  0.3507  0.0869 -1.2880
12268SOL    HW238225   1.751   1.726   0.046 -0.0853 -1.1630  0.9644
12269SOL     OW38226   4.771   3.733   6.855  0.0027  0.5133 -0.1114
12269SOL    HW138227   4.837   3.748   6.788 -0.2036  0.6290 -0.2850
12269SOL    HW238228   4.747   3.820   6.886 -0.9971  0.5352 -0.9358
12270SOL     OW38229   0.208   1.234   7.372 -0.0188  0.3305  0.3052
12270SOL    HW138230   0.117   1.204   7.365 -1.0723  3.0634  1.0127
12270SOL    HW238231   0.229   1.265   7.284  1.3452 -2.8532 -0.6404
12271SOL     OW38232   0.110   4.028   0.899 -0.2678  0.0518  0.0866
12271SOL    HW138233   0.166   4.098   0.866 -0.7504  0.0128 -0.8501
12271SOL    HW238234   0.125   3.955   0.839 -0.3621 -0.3847  0.5864
12272SOL     OW38235   4.425   3.073   3.254  0.8279  0.2003 -0.0533
12272SOL    HW138236   4.354   3.062   3.318  1.4244 -0.7738  0.4688
12272SOL    HW238237   4.451   3.165   3.264  1.8631 -0.2555  2.1840
12273SOL     OW38238   6.300   7.912   0.621  0.5022 -0.6506 -0.3286
12273SOL    HW138239   6.265   7.876   0.702 -0.6270 -1.7171 -1.2554
12273SOL    HW238240   6.351   7.840   0.583  1.9186  0.1782 -0.0819
12274SOL     OW38241   5.723   3.983   2.811  0.2592  0.6081 -0.1041
12274SOL    HW138242   5.682   4.063   2.842  1.1556  1.1044 -0.1564
12274SOL    HW238243   5.761   4.006   2.727  0.5490  0.1341 -0.1115
12275SOL     OW38244   6.232   7.429   6.358 -0.1253  0.4563  0.2487
12275SOL    HW138245   6.213   7.454   6.449 -0.2157 -0.0201  0.3659
12275SOL    HW238246   6.314   7.380   6.363 -0.7167 -0.5705  0.2449
12276SOL     OW38247   0.203   7.749   4.015  0.2134 -0.1921 -0.3351
12276SOL    HW138248   0.179   7.841   4.026 -2.2011 -0.8129  0.3147
12276SOL    HW238249   0.267   7.749   3.944 -0.1316  1.9404 -0.7141
12277SOL     OW38250   5.225   7.293   7.194  0.1034  0.2283  0.3892
12277SOL    HW138251   5.173   7.277   7.273  0.2057 -1.9712  0.0495
12277SOL    HW238252   5.222   7.211   7.145  1.1248  1.1315 -1.2822
12278SOL     OW38253   2.150   3.065   7.046  0.1855  0.2141  0.2811
12278SOL    HW138254   2.178   3.155   7.065 -1.5624  0.9928 -0.5976
12278SOL    HW238255   2.138   3.025   7.132 -2.9975  2.1806  0.9394
12279SOL     OW38256   4.371   5.226   1.415 -0.2363  0.7757  0.1562
12279SOL    HW138257   4.281   5.231   1.382 -0.1801 -0.2582 -0.1670
12279SOL    HW238258   4.410   5.153   1.368  0.9050  1.4546  0.0027
12280SOL     OW38259   0.812   5.222   0.196  0.2669 -0.0737  0.1738
12280SOL    HW138260   0.725   5.247   0.229  0.1845  1.2310 -0.9320
12280SOL    HW238261   0.873   5.276   0.246  0.2784  0.5188 -0.4698
12281SOL     OW38262   3.971   1.131   2.197  0.2562 -0.3714  0.2624
12281SOL    HW138263   4.036   1.100   2.260  0.4778  2.0821  1.3495
12281SOL    HW238264   4.017   1.195   2.143 -0.2190 -1.6590 -1.7939
12282SOL     OW38265   2.735   3.718   7.175  0.3869 -0.1832 -0.3173
12282SOL    HW138266   2.787   3.797   7.162  0.6393 -0.4255 -0.7826
12282SOL    HW238267   2.678   3.739   7.249  1.0820  0.1179  0.1385
12283SOL     OW38268   0.693   5.552   7.933 -0.0352 -0.1197  0.1291
12283SOL    HW138269   0.714   5.579   7.844 -0.5292 -0.2270 -0.0219
12283SOL    HW238270   0.627   5.615   7.962  1.9631  1.5561  1.3681
12284SOL     OW38271   4.348   6.059   7.455  0.5276 -0.3909  0.4533
12284SOL    HW138272   4.391   6.144   7.446  0.5626 -0.3711  0.7858
12284SOL    HW238273   4.255   6.078   7.451  0.4959 -0.1750  1.7351
12285SOL     OW38274   4.251   1.239   3.543  0.0394  0.0422 -0.2826
12285SOL    HW138275   4.264   1.245   3.638  0.3543  0.0927 -0.3265
12285SOL    HW238276   4.162   1.206   3.533 -0.8956  2.3111  0.0085
12286SOL     OW38277   5.075   4.188   1.506 -0.1675  0.3279 -0.0408
12286SOL    HW138278   5.005   4.223   1.451 -0.3304  1.1520  0.6654
12286SOL    HW238279   5.156   4.212   1.462 -0.2839  1.4452  0.3266
12287SOL     OW38280   4.014   0.684   1.241 -0.0248 -0.3929  1.0252
12287SOL    HW138281   4.025   0.595   1.210 -0.3529 -0.2106  0.3599
12287SOL    HW238282   4.045   0.739   1.169 -2.8979  0.0855 -0.0023
12288SOL     OW38283   8.011   4.287   7.114 -0.1832 -0.1811 -0.4745
12288SOL    HW138284   8.099   4.308   7.147 -0.5539  0.0869  0.3683
12288SOL    HW238285   8.026   4.222   7.046  0.6998  0.1007 -0.5609
12289SOL     OW38286   1.042   6.181   6.445 -0.7792 -0.0133  0.3798
12289SOL    HW138287   1.119   6.201   6.498  0.9874 -0.7537 -1.7673
12289SOL    HW238288   1.063   6.099   6.402 -3.0616 -0.5549  0.1623
12290SOL     OW38289   7.291   0.403   6.310  0.2773 -0.0133  0.4272
12290SOL    HW138290   7.320   0.476   6.255 -1.3453 -0.3040 -0.8934
12290SOL    HW238291   7.322   0.426   6.398 -1.6884  3.1990  0.4327
12291SOL     OW38292   5.951   4.955   3.980 -0.0062  0.1594 -0.1904
12291SOL    HW138293   6.015   4.932   3.913 -0.2911 -2.1096  0.2424
12291SOL    HW238294   5.871   4.977   3.931  0.0846 -0.4833 -0.6350
12292SOL     OW38295   4.261   2.557   0.909 -0.6035  0.1515  0.3307
12292SOL    HW138296   4.285   2.485   0.852 -1.3283 -0.0769  0.2951
12292SOL    HW238297   4.210   2.516   0.980 -1.2236  0.6453  0.1818
12293SOL     OW38298   2.075   1.552   0.586  0.2399 -0.4207  0.4268
12293SOL    HW138299   2.080   1.501   0.506 -0.3887  1.4462 -0.8719
12293SOL    HW238300   2.113   1.637   0.564  1.8734 -0.4610  2.7010
12294SOL     OW38301   4.673   5.995   5.739 -0.0296  0.4536 -0.2753
12294SOL    HW138302   4.702   5.946   5.816  0.0097  2.9143  1.4138
12294SOL    HW238303   4.577   5.985   5.739  0.0716 -0.6069 -0.7042
12295SOL     OW38304   7.937   7.343   7.584  0.3675 -0.5856  0.3113
12295SOL    HW138305   7.946   7.323   7.677  0.1793  2.3583  1.0596
12295SOL    HW238306   8.020   7.385   7.561 -0.2253  0.1867 -0.4236
12296SOL     OW38307   7.529   2.263   1.833  0.5051  0.6938  0.4141
12296SOL    HW138308   7.570   2.292   1.914  0.7401  0.2755  0.4426
12296SOL    HW238309   7.447   2.221   1.860  0.9765 -0.1877  0.5015
12297SOL     OW38310   2.101   1.280   2.326  0.4042  0.1839  0.0573
12297SOL    HW138311   2.107   1.337   2.248  1.4628  0.3640  0.2643
12297SOL    HW238312   2.191   1.272   2.357  0.4326 -2.3448 -0.4767
12298SOL     OW38313   5.583   6.317   2.989 -0.3675  0.1607 -0.2915
12298SOL    HW138314   5.553   6.337   2.901 -0.6943 -0.8440 -0.4212
12298SOL    HW238315   5.605   6.402   3.027 -1.0549  0.6846 -1.0350
12299SOL     OW38316   4.997   4.066   5.164 -0.4505 -0.4048 -0.1390
12299SOL    HW138317   5.059   4.083   5.235 -1.9917  0.0042  1.1930
12299SOL    HW238318   4.937   4.141   5.166 -1.1157 -0.8769 -1.2311
12300SOL     OW38319   1.023   6.175   4.824  0.6305 -0.8253 -0.4478
12300SOL    HW138320   0.956   6.196   4.758 -1.7637  1.7082  2.4671
12300SOL    HW238321   1.093   6.238   4.807 -0.2322  0.2171 -0.2849
12301SOL     OW38322   3.873   7.508   0.146  0.3029  0.5405  0.3096
12301SOL    HW138323   3.792   7.506   0.096  0.5549  0.1563 -0.0901
12301SOL    HW238324   3.846   7.533   0.235 -0.3246 -0.1939  0.3301
12302SOL     OW38325   0.296   0.142   1.852  0.2593 -0.4355 -0.3864
12302SOL    HW138326   0.241   0.111   1.780 -1.4290  2.1745 -0.3420
12302SOL    HW238327   0.258   0.100   1.930 -2.7113  2.2663 -0.1758
12303SOL     OW38328   3.027   6.865   0.897  0.5044  0.7231  0.4125
12303SOL    HW138329   2.986   6.804   0.958  2.2754 -0.7639  0.2089
12303SOL    HW238330   3.070   6.930   0.952 -1.5907  2.0252  0.6300
12304SOL     OW38331   0.929   4.245   7.384 -0.8302 -0.1835 -0.0911
12304SOL    HW138332   0.950   4.284   7.300 -0.0707  1.3027  0.7366
12304SOL    HW238333   1.013   4.238   7.429 -1.1644 -1.3566  0.3872
12305SOL     OW38334   2.268   1.213   0.747  0.4533 -0.2727  0.0823
12305SOL    HW138335   2.176   1.194   0.731  0.4223 -0.2007  0.1744
12305SOL    HW238336   2.276   1.219   0.842  0.3056  0.9339  0.0418
12306SOL     OW38337   3.460   3.731   3.576  0.4331 -0.2264 -0.1111
12306SOL    HW138338   3.466   3.681   3.494 -0.5060 -0.7959  0.1531
12306SOL    HW238339   3.540   3.784   3.577  0.5086 -0.2692 -1.3549
12307SOL     OW38340   2.910   0.319   0.921 -0.0207 -0.1587 -0.3159
12307SOL    HW138341   2.852   0.394   0.907  2.2676  1.7521 -0.2335
12307SOL    HW238342   2.921   0.281   0.833  2.4548  2.5882 -1.3606
12308SOL     OW38343   0.404   2.583   5.917  0.1434 -0.4490  0.1155
12308SOL    HW138344   0.344   2.621   5.982 -0.7104  0.9821 -1.4190
12308SOL    HW238345   0.354   2.512   5.877 -0.7682  0.9784 -1.4202
12309SOL     OW38346   0.137   0.739   2.490 -0.2621 -0.6947  0.0344
12309SOL    HW138347   0.161   0.825   2.454  0.6347 -0.2835  1.5109
12309SOL    HW238348   0.151   0.678   2.418 -0.3248  0.3154 -0.8625
12310SOL     OW38349   7.374   8.036   6.740  0.1198  0.7081  0.7114
12310SOL    HW138350   7.368   7.941   6.743  0.8957  0.6774  2.6836
12310SOL    HW238351   7.335   8.060   6.656  2.1418 -1.4959 -0.9873
12311SOL     OW38352   2.195   7.282   3.895  0.4511 -0.0852 -0.3428
12311SOL    HW138353   2.203   7.373   3.869  1.2558 -0.4532 -1.4487
12311SOL    HW238354   2.185   7.233   3.813  0.6523 -1.0466  0.1813
12312SOL     OW38355   7.234   0.385   4.319 -0.0375 -0.4190  0.3579
12312SOL    HW138356   7.193   0.469   4.302 -0.0214 -0.3362  0.7156
12312SOL    HW238357   7.249   0.384   4.414 -0.8989 -1.2113  0.5068
12313SOL     OW38358   2.518   3.345   2.906  0.4360 -0.4049 -0.3635
12313SOL    HW138359   2.511   3.427   2.955  0.5774 -0.8529  0.4234
12313SOL    HW238360   2.553   3.282   2.970  1.9824 -0.6656 -1.4113
12314SOL     OW38361   0.931   2.821   0.410 -0.0359  0.1099  0.3662
12314SOL    HW138362   0.982   2.797   0.333 -0.2262  0.6093  0.0820
12314SOL    HW238363   0.994   2.865   0.468  0.3061 -0.9833  0.8725
12315SOL     OW38364   7.078   7.604   5.985  0.2299  0.0369  0.0530
12315SOL    HW138365   7.091   7.660   6.062  0.2528 -1.5119  1.2103
12315SOL    HW238366   7.143   7.636   5.922 -1.3498  2.9110 -0.3153
12316SOL     OW38367   2.684   3.095   5.931  0.1140 -0.2598 -0.1126
12316SOL    HW138368   2.772   3.082   5.967  0.7536 -0.9766 -1.8319
12316SOL    HW238369   2.670   3.019   5.875 -0.6100  1.0173 -1.7436
12317SOL     OW38370   0.154   1.332   5.829  0.0855  0.1405 -0.1329
12317SOL    HW138371   0.105   1.404   5.789  0.7131  0.3718 -0.4901
12317SOL    HW238372   0.196   1.370   5.905 -0.6975 -0.1818  0.4751
12318SOL     OW38373   3.417   7.460   3.419 -0.1522  0.0974  0.2166
12318SOL    HW138374   3.498   7.436   3.375 -0.1470  0.6364 -0.0781
12318SOL    HW238375   3.444   7.497   3.502 -0.0600  0.8207 -0.1298
12319SOL     OW38376   4.761   3.239   1.248  0.2140 -0.0271  0.0289
12319SOL    HW138377   4.718   3.253   1.163  0.2168 -1.2160 -0.1811
12319SOL    HW238378   4.694   3.260   1.313 -0.2351 -0.4741 -0.2828
12320SOL     OW38379   1.838   5.953   3.438 -0.0789 -0.0362  0.0940
12320SOL    HW138380   1.780   5.908   3.376  1.0297 -1.3563 -0.0159
12320SOL    HW238381   1.917   5.971   3.388 -0.1139  1.1472  0.4406
12321SOL     OW38382   4.279   3.695   3.895 -0.0552 -0.2442 -0.1683
12321SOL    HW138383   4.361   3.650   3.874 -0.0874 -0.3804 -0.0008
12321SOL    HW238384   4.293   3.785   3.864  1.2633  0.5563  2.4016
12322SOL     OW38385   4.291   2.674   8.010 -0.2773  0.0557 -0.2793
12322SOL    HW138386   4.305   2.768   8.022 -0.7905  0.0439  0.5058
12322SOL    HW238387   4.372   2.633   8.042 -0.4701  0.1838  0.3865
12323SOL     OW38388   4.363   0.051   1.515  0.0113  0.8079  0.4889
12323SOL    HW138389   4.389  -0.040   1.532 -0.0637  0.7561  0.3297
12323SOL    HW238390   4.277   0.058   1.556 -0.5353  0.4427 -0.5714
12324SOL     OW38391   7.129   5.793   5.539 -0.2809 -0.0940  0.0582
12324SOL    HW138392   7.083   5.709   5.533  0.1312 -0.2381 -2.0241
12324SOL    HW238393   7.059   5.858   5.534 -0.4332 -0.3273 -1.5247
12325SOL     OW38394   1.795   5.900   1.693 -0.3408  0.0627  0.3356
12325SOL    HW138395   1.844   5.874   1.615 -2.9099  1.4273 -1.9018
12325SOL    HW238396   1.845   5.972   1.730 -0.2474  0.9886 -1.4793
12326SOL     OW38397   0.208   7.931   2.384 -0.1791 -0.0866 -0.1665
12326SOL    HW138398   0.189   7.887   2.301 -0.7848  1.6338 -0.9850
12326SOL    HW238399   0.294   7.897   2.410  1.4955  1.5153 -3.0950
12327SOL     OW38400   6.518   5.978   2.645 -0.3378 -0.4323  0.1862
12327SOL    HW138401   6.612   5.997   2.639 -0.5053  1.4026  2.2855
12327SOL    HW238402   6.477   6.044   2.589 -0.4733  0.0649  0.8657
12328SOL     OW38403   4.945   3.674   2.847  0.3143  0.4148  0.2323
12328SOL    HW138404   4.935   3.706   2.757 -1.1929 -0.7548 -0.0576
12328SOL    HW238405   4.865   3.625   2.863  1.8277 -1.8598  1.2080
12329SOL     OW38406   7.415   7.704   2.931  0.3030 -0.3931  0.5204
12329SOL    HW138407   7.495   7.692   2.983  3.6180  1.0270 -3.6445
12329SOL    HW238408   7.404   7.622   2.884  1.1153  0.2822 -0.9433
12330SOL     OW38409   6.870   1.296   7.458 -0.1209 -0.0109 -0.1835
12330SOL    HW138410   6.892   1.220   7.512 -0.4751 -0.0642 -0.1142
12330SOL    HW238411   6.777   1.313   7.476  0.2503  1.1880  0.7516
12331SOL     OW38412   2.721   0.777   0.465  0.1370  0.2748  0.5572
12331SOL    HW138413   2.735   0.683   0.458 -1.6607 -0.0608  0.9646
12331SOL    HW238414   2.659   0.798   0.395  2.0047  1.5437 -0.7967
12332SOL     OW38415   5.529   4.825   1.987  0.3446  0.2490 -0.6193
12332SOL    HW138416   5.579   4.755   2.029  0.7626  1.1942  0.5115
12332SOL    HW238417   5.474   4.861   2.057  0.3693  1.2605 -1.0960
12333SOL     OW38418   1.950   6.051   6.625  0.2962  0.0791  1.1528
12333SOL    HW138419   2.033   6.068   6.670  0.2264 -1.3084  1.8791
12333SOL    HW238420   1.886   6.039   6.696 -0.9431  2.8058  0.6116
12334SOL     OW38421   6.374   2.942   7.810  0.6082  0.7319 -0.3048
12334SOL    HW138422   6.461   2.906   7.830  0.6129  0.7945 -0.2147
12334SOL    HW238423   6.370   2.942   7.714  0.1483 -0.6203 -0.3067
12335SOL     OW38424   6.721   7.161   5.626 -0.4239  0.1098 -0.3320
12335SOL    HW138425   6.722   7.221   5.701 -0.9168 -0.7351  0.3774
12335SOL    HW238426   6.811   7.159   5.595 -0.1350  0.1952  0.4776
12336SOL     OW38427   1.779   3.649   1.684 -0.0873  0.2723  0.0384
12336SOL    HW138428   1.708   3.677   1.626 -0.2195 -0.1091  0.0114
12336SOL    HW238429   1.772   3.707   1.759  0.1912  0.8834 -0.3998
12337SOL     OW38430   0.498   1.643   6.511  0.2628 -0.1859 -0.1293
12337SOL    HW138431   0.504   1.610   6.601  1.3592 -0.9852 -0.4690
12337SOL    HW238432   0.428   1.590   6.471 -0.3261  0.2707  0.2833
12338SOL     OW38433   2.007   6.794   6.889  0.2201  0.5796 -0.4108
12338SOL    HW138434   2.092   6.787   6.846  0.4237  0.1003  0.0528
12338SOL    HW238435   1.954   6.847   6.829  0.8037  0.7791 -0.7613
12339SOL     OW38436   5.298   1.595   0.393  0.1690  0.6821  0.0876
12339SOL    HW138437   5.208   1.626   0.405  0.9363  3.2802 -0.2240
12339SOL    HW238438   5.310   1.529   0.462 -1.8354  0.5528  0.3684
12340SOL     OW38439   1.908   7.421   6.031 -0.0001 -0.2251  0.2466
12340SOL    HW138440   1.984   7.419   5.973 -1.2963  0.2839 -1.5717
12340SOL    HW238441   1.892   7.329   6.053  0.9614 -0.3584  0.4058
12341SOL     OW38442   6.777   5.064   8.024 -0.1894 -0.0801 -0.5113
12341SOL    HW138443   6.731   5.119   8.088 -1.5575  0.0369 -1.5523
12341SOL    HW238444   6.868   5.066   8.053 -0.3936  1.7607  0.1714
12342SOL     OW38445   6.172   1.051   4.232  0.2009 -0.0767  0.0535
12342SOL    HW138446   6.186   0.964   4.270  0.9624  0.4289  0.9796
12342SOL    HW238447   6.082   1.074   4.258 -0.0674 -0.6432 -0.3395
12343SOL     OW38448   2.971   7.260   4.698 -0.5830  0.3597  0.5399
12343SOL    HW138449   2.888   7.280   4.740 -0.9831 -0.3829  0.1273
12343SOL    HW238450   2.947   7.218   4.616  0.1968 -0.6885  0.8257
12344SOL     OW38451   7.836   7.669   2.908  0.1115  0.2545  0.0612
12344SOL    HW138452   7.916   7.626   2.937 -0.0322 -0.6260 -0.8100
12344SOL    HW238453   7.766   7.624   2.955 -0.1004 -1.0003 -1.3848
12345SOL     OW38454   7.334   1.749   6.300  0.1687  0.0872 -0.3204
12345SOL    HW138455   7.242   1.774   6.298  0.1062  0.7031  3.2312
12345SOL    HW238456   7.334   1.655   6.319  0.3239 -0.1939 -1.6299
12346SOL     OW38457   1.153   4.487   2.756 -0.6179 -0.5879  0.0483
12346SOL    HW138458   1.096   4.469   2.831 -0.4849  1.0349  0.5789
12346SOL    HW238459   1.236   4.445   2.779 -0.9078 -1.0286  0.3105
12347SOL     OW38460   7.797   7.330   3.210 -0.0539  0.0444 -0.4895
12347SOL    HW138461   7.771   7.303   3.121 -0.6496  0.3898 -0.4221
12347SOL    HW238462   7.730   7.392   3.237  0.6608  0.6967 -0.1729
12348SOL     OW38463   3.676   0.421   7.352 -0.5002  0.1016 -0.3078
12348SOL    HW138464   3.595   0.405   7.303  0.1763 -1.8419 -0.9115
12348SOL    HW238465   3.673   0.514   7.373 -1.8119  0.5792 -2.2644
12349SOL     OW38466   6.417   4.337   0.246 -0.2306 -0.8405  0.8292
12349SOL    HW138467   6.449   4.337   0.336 -1.7279  2.0237  1.4900
12349SOL    HW238468   6.330   4.377   0.252 -1.1905 -2.3420 -1.6814
12350SOL     OW38469   2.828   5.117   4.876  0.0880 -0.1353 -0.1298
12350SOL    HW138470   2.893   5.053   4.848 -0.4002 -0.6565 -0.1099
12350SOL    HW238471   2.744   5.074   4.856 -0.2442  0.3604  0.2023
12351SOL     OW38472   4.479   6.556   3.475 -0.4206 -0.6521  0.1184
12351SOL    HW138473   4.461   6.644   3.508  3.7812  0.5198 -0.0560
12351SOL    HW238474   4.410   6.539   3.411 -0.6864  3.1784 -0.8713
12352SOL     OW38475   5.636   3.439   1.556  0.3847  0.1212 -0.2129
12352SOL    HW138476   5.596   3.365   1.603 -0.4790 -1.2618 -2.9174
12352SOL    HW238477   5.730   3.421   1.558  0.1996 -0.9700 -0.6288
12353SOL     OW38478   0.110   6.211   5.830  0.0818  0.0911 -0.8353
12353SOL    HW138479   0.073   6.133   5.873 -0.3918  0.7091 -0.0905
12353SOL    HW238480   0.041   6.277   5.838  0.8560  0.8826 -0.5655
12354SOL     OW38481   6.283   7.301   7.146 -0.0893  0.1773 -0.7355
12354SOL    HW138482   6.191   7.313   7.123 -0.0548  2.9800  0.1982
12354SOL    HW238483   6.283   7.229   7.209 -2.4028  2.9708  2.8531
12355SOL     OW38484   1.394   2.817   7.324  0.5248 -0.4333 -0.2896
12355SOL    HW138485   1.327   2.881   7.300  0.6813 -0.5633 -1.0979
12355SOL    HW238486   1.363   2.780   7.407  0.1854  0.3264 -0.0664
12356SOL     OW38487   2.690   3.105   7.142  0.3402  0.3898  0.5272
12356SOL    HW138488   2.687   3.121   7.048  0.4392  1.1333  0.6470
12356SOL    HW238489   2.599   3.112   7.171  0.0969 -1.2409  0.2787
12357SOL     OW38490   4.772   5.858   1.558 -0.1978  0.3128 -0.3239
12357SOL    HW138491   4.698   5.843   1.616  0.0570 -0.4393 -0.1757
12357SOL    HW238492   4.826   5.922   1.604 -0.1786 -0.0055  0.0984
12358SOL     OW38493   5.094   5.833   7.343 -0.3570 -0.3847  0.9558
12358SOL    HW138494   5.116   5.866   7.430  2.2132  0.7167 -0.0167
12358SOL    HW238495   5.130   5.745   7.340 -0.8191 -0.5854  1.1119
12359SOL     OW38496   5.849   3.813   4.035  0.3775  0.1921 -0.0406
12359SOL    HW138497   5.875   3.866   4.111 -3.9935  1.0868  1.1182
12359SOL    HW238498   5.821   3.730   4.073  0.0993 -0.1468 -0.9600
12360SOL     OW38499   7.872   3.413   4.484  0.0487  0.1788 -0.6779
12360SOL    HW138500   7.911   3.353   4.420 -0.0874 -0.1751 -0.4316
12360SOL    HW238501   7.785   3.377   4.501  1.2091 -1.6296  2.1434
12361SOL     OW38502   2.739   5.891   4.604  0.0384 -0.5324 -0.3977
12361SOL    HW138503   2.644   5.900   4.612 -0.0067 -0.6509 -0.8069
12361SOL    HW238504   2.753   5.802   4.572  0.2899 -0.5193 -0.3284
12362SOL     OW38505   5.618   3.833   3.856 -0.1427 -0.7105 -0.5548
12362SOL    HW138506   5.688   3.808   3.917 -1.7106 -1.4528  1.0094
12362SOL    HW238507   5.592   3.921   3.884 -0.0398 -0.5398 -0.9764
12363SOL     OW38508   1.053   4.783   7.274  0.0315  0.6528 -0.2593
12363SOL    HW138509   0.967   4.751   7.245  0.0987  1.4742 -1.4398
12363SOL    HW238510   1.114   4.749   7.209  0.2709  1.9989 -0.7829
12364SOL     OW38511   7.408   0.025   5.539 -0.2057 -0.0610  0.1042
12364SOL    HW138512   7.401   0.045   5.446 -0.6371  2.0317  0.5278
12364SOL    HW238513   7.326   0.057   5.577  0.2798 -0.1881  1.3102
12365SOL     OW38514   7.534   7.012   3.744  0.2874  0.1512 -0.3658
12365SOL    HW138515   7.599   7.072   3.781 -0.4971  1.2800 -0.7631
12365SOL    HW238516   7.497   6.967   3.821  0.0192  1.0799  0.0604
12366SOL     OW38517   5.949   5.304   6.290 -0.6313  0.0677  0.3871
12366SOL    HW138518   5.858   5.274   6.297 -2.1588  3.9481 -0.5721
12366SOL    HW238519   5.967   5.304   6.197 -1.4976  3.7733  0.0853
12367SOL     OW38520   0.866   4.200   0.909  0.2501 -0.0014 -0.0955
12367SOL    HW138521   0.785   4.152   0.889  0.5312 -0.8811  0.7889
12367SOL    HW238522   0.857   4.224   1.001  2.0655 -2.3671  0.7932
12368SOL     OW38523   3.475   5.315   1.847 -0.3022 -0.1991 -0.5492
12368SOL    HW138524   3.438   5.269   1.922  0.2549  0.9436  0.4777
12368SOL    HW238525   3.547   5.366   1.884  2.8496 -2.8231 -2.5045
12369SOL     OW38526   0.357   5.884   1.215 -0.5533  0.4042 -0.3772
12369SOL    HW138527   0.380   5.816   1.152  1.7063  0.5961  0.1338
12369SOL    HW238528   0.382   5.847   1.300 -0.9389  1.2011  0.0960
12370SOL     OW38529   2.478   4.078   7.467 -0.2941 -0.6484  0.6203
12370SOL    HW138530   2.388   4.074   7.501 -0.1920  1.5740  1.3334
12370SOL    HW238531   2.470   4.124   7.384 -0.0319 -2.3888 -0.4018
12371SOL     OW38532   5.683   6.882   4.483  0.2120 -0.7927  0.0060
12371SOL    HW138533   5.695   6.900   4.389  0.7474  1.7954  0.5146
12371SOL    HW238534   5.595   6.912   4.502  1.1180  1.5673  0.8726
12372SOL     OW38535   1.691   1.870   3.277 -0.4139 -0.2082  1.0372
12372SOL    HW138536   1.676   1.964   3.286 -1.0999 -0.2424  0.3378
12372SOL    HW238537   1.658   1.848   3.190 -0.8831 -1.2151  1.4496
12373SOL     OW38538   5.991   6.956   0.029  0.4138 -0.2262  0.3373
12373SOL    HW138539   6.076   6.999   0.030  0.1454  0.3496 -0.4337
12373SOL    HW238540   5.960   6.959   0.119  0.8375  0.3064  0.4629
12374SOL     OW38541   3.126   0.745   5.976  0.4310  0.3582 -0.9037
12374SOL    HW138542   3.148   0.834   5.952  2.3358  0.4648  0.9007
12374SOL    HW238543   3.208   0.707   6.007 -0.7899 -1.2100  0.6988
12375SOL     OW38544   6.252   0.688   0.370  0.1671  0.1902  0.1433
12375SOL    HW138545   6.282   0.601   0.346 -1.3199 -0.5596  0.8745
12375SOL    HW238546   6.313   0.747   0.326  0.9970 -1.1995 -0.6494
12376SOL     OW38547   0.076   1.622   0.413 -0.1788 -0.4360 -0.1678
12376SOL    HW138548   0.107   1.699   0.367  1.5414 -0.5380  0.7576
12376SOL    HW238549   0.013   1.582   0.353 -0.2451  1.0419 -1.1331
12377SOL     OW38550   2.585   3.013   4.227 -0.3968  0.1455 -0.0368
12377SOL    HW138551   2.545   3.014   4.140 -1.5741 -2.3167  0.4052
12377SOL    HW238552   2.647   2.940   4.225 -2.0067 -1.3773  1.7811
12378SOL     OW38553   7.520   2.980   3.488 -0.5316  0.2542  0.2626
12378SOL    HW138554   7.613   2.956   3.486 -0.6691 -0.2926 -1.8134
12378SOL    HW238555   7.518   3.064   3.533  0.7744 -0.4554  1.7182
12379SOL     OW38556   0.178   5.099   5.357  0.7233 -0.3754  0.6082
12379SOL    HW138557   0.266   5.073   5.327  0.6502 -1.6191  1.3742
12379SOL    HW238558   0.172   5.063   5.446 -0.5046 -0.1550  0.6306
12380SOL     OW38559   1.438   7.598   0.225  0.4003 -0.1239 -0.4204
12380SOL    HW138560   1.411   7.543   0.152 -0.0934 -0.0468 -0.2978
12380SOL    HW238561   1.533   7.587   0.229  0.3668 -0.5593 -0.7240
12381SOL     OW38562   1.803   5.215   5.838  0.2976 -0.2700  0.3886
12381SOL    HW138563   1.827   5.159   5.765  1.8995 -1.5372  1.8123
12381SOL    HW238564   1.710   5.196   5.854 -1.1250  2.3815 -3.2115
12382SOL     OW38565   1.532   0.536   1.940 -0.4001  0.1734 -0.5862
12382SOL    HW138566   1.570   0.601   1.881 -0.6926  1.6777  0.8187
12382SOL    HW238567   1.465   0.492   1.887 -0.6200  1.4321 -1.4055
12383SOL     OW38568   4.727   2.698   1.315  0.1184  0.1607  0.0193
12383SOL    HW138569   4.666   2.734   1.251 -2.0225 -1.3953  1.0774
12383SOL    HW238570   4.713   2.603   1.311 -0.1680  0.0103  2.8045
12384SOL     OW38571   5.798   1.797   7.772 -0.1649  0.1946 -0.6226
12384SOL    HW138572   5.744   1.769   7.845  0.1745  0.6854 -0.1788
12384SOL    HW238573   5.737   1.835   7.709 -0.7841 -2.2867 -1.6617
12385SOL     OW38574   4.548   1.077   0.277 -0.0473  0.4126 -0.6396
12385SOL    HW138575   4.611   1.123   0.222 -0.7999  1.3546 -0.7279
12385SOL    HW238576   4.518   1.143   0.340 -1.2579  0.1015 -0.8659
12386SOL     OW38577   4.536   2.987   0.426 -0.0801  0.0832  0.0911
12386SOL    HW138578   4.486   3.068   0.427 -0.1013  0.0653  0.5889
12386SOL    HW238579   4.489   2.929   0.486  1.6981  0.7767  2.2919
12387SOL     OW38580   3.767   7.355   1.346 -0.0899  0.8372 -0.2668
12387SOL    HW138581   3.689   7.309   1.313 -1.7463  2.8281  0.6617
12387SOL    HW238582   3.789   7.417   1.277  2.8139 -1.8053 -2.0140
12388SOL     OW38583   6.658   7.652   1.600 -0.1142  0.2664  0.0825
12388SOL    HW138584   6.581   7.656   1.544 -1.6072 -0.0472  1.9959
12388SOL    HW238585   6.684   7.744   1.611 -0.7399  0.4486  0.0818
12389SOL     OW38586   5.188   3.508   1.747  0.1288  0.1142 -0.3781
12389SOL    HW138587   5.169   3.553   1.829 -1.3372 -0.6454 -0.2774
12389SOL    HW238588   5.207   3.417   1.773  0.2540  0.0097 -0.8232
12390SOL     OW38589   7.867   2.556   6.892 -0.1093  0.1338  0.4712
12390SOL    HW138590   7.870   2.484   6.954  0.3000  0.8720  1.3219
12390SOL    HW238591   7.935   2.535   6.827 -1.1513 -1.0947 -0.2777
12391SOL     OW38592   7.260   1.159   0.774  0.0379  0.1777 -0.1016
12391SOL    HW138593   7.200   1.226   0.808 -0.2555 -1.1729  2.2339
12391SOL    HW238594   7.205   1.103   0.719 -0.9948 -1.0984  2.0895
12392SOL     OW38595   0.405   3.931   3.754 -0.5582 -0.4111 -0.2498
12392SOL    HW138596   0.484   3.984   3.742 -0.7922  0.4905  1.7044
12392SOL    HW238597   0.437   3.844   3.775 -0.0957 -0.2754 -0.3886
12393SOL     OW38598   1.068   2.967   6.654  0.1616 -0.5902 -0.2116
12393SOL    HW138599   1.028   3.039   6.704  0.0395 -0.7962 -0.0119
12393SOL    HW238600   1.047   2.888   6.704  0.2630 -0.7711 -0.4521
12394SOL     OW38601   0.103   6.815   4.765 -0.1540 -0.2998 -0.1137
12394SOL    HW138602   0.153   6.788   4.688  0.0814  0.0928 -0.0981
12394SOL    HW238603   0.019   6.770   4.755 -0.2439 -0.0103 -0.7681
12395SOL     OW38604   6.157   6.111   5.020 -0.6283  0.1405  0.0480
12395SOL    HW138605   6.188   6.200   5.003  0.3702 -0.4431 -1.3118
12395SOL    HW238606   6.139   6.111   5.114  3.3517  0.6263  1.0244
12396SOL     OW38607   3.510   6.570   0.016 -0.4003  0.1039 -0.8747
12396SOL    HW138608   3.492   6.577   0.110 -0.4911 -1.8269 -0.7089
12396SOL    HW238609   3.547   6.655  -0.008  3.3131 -0.5831  1.7023
12397SOL     OW38610   1.680   5.593   6.248 -0.0533 -0.8199  0.3815
12397SOL    HW138611   1.746   5.634   6.304 -0.6185 -0.2273  0.6231
12397SOL    HW238612   1.724   5.582   6.164  0.8984 -1.9879  1.0010
12398SOL     OW38613   2.604   2.567   7.091 -0.1837  0.2984 -0.1040
12398SOL    HW138614   2.509   2.575   7.102 -0.6189 -3.5468  0.4945
12398SOL    HW238615   2.616   2.560   6.996 -0.8666 -1.4391 -0.1065
12399SOL     OW38616   6.603   3.454   0.838  0.0419  0.1088  0.1048
12399SOL    HW138617   6.575   3.368   0.807 -2.8469  0.5894  1.1406
12399SOL    HW238618   6.522   3.501   0.857  1.5601  2.1429  2.0932
12400SOL     OW38619   1.384   2.044   6.850  1.0002 -0.1424 -1.0470
12400SOL    HW138620   1.470   2.024   6.813  0.7071  0.3734 -2.0461
12400SOL    HW238621   1.375   2.139   6.838  0.6239 -0.0714 -0.2278
12401SOL     OW38622   1.251   0.646   1.652  0.1823 -0.1475  0.5350
12401SOL    HW138623   1.175   0.636   1.595  0.0844 -1.1817  0.8369
12401SOL    HW238624   1.238   0.732   1.694 -0.4979 -0.0487  0.1286
12402SOL     OW38625   0.334   7.604   3.805 -0.2878  0.0732 -0.1340
12402SOL    HW138626   0.362   7.523   3.847 -0.0455  1.4280  2.5209
12402SOL    HW238627   0.254   7.581   3.758 -0.4314 -1.6213  0.8890
12403SOL     OW38628   3.601   1.093   5.845 -0.0816 -0.5477 -0.1318
12403SOL    HW138629   3.593   1.007   5.888 -1.2993 -1.0878 -1.3543
12403SOL    HW238630   3.561   1.154   5.907 -2.1672 -1.3678 -0.5758
12404SOL     OW38631   0.044   4.704   6.352  0.5018 -0.4587  0.3227
12404SOL    HW138632   0.134   4.680   6.331  1.2371  0.3433  2.3441
12404SOL    HW238633   0.047   4.798   6.368 -0.8207 -0.3167 -0.1305
12405SOL     OW38634   7.401   2.330   4.942  0.6680 -0.3281  0.0326
12405SOL    HW138635   7.395   2.234   4.936  0.3338 -0.2597 -0.8858
12405SOL    HW238636   7.310   2.359   4.944  0.7541  0.0403 -1.0671
12406SOL     OW38637   7.450   4.552   6.466 -0.1184 -0.2274 -0.1230
12406SOL    HW138638   7.427   4.625   6.524 -0.4259 -0.5077  0.1188
12406SOL    HW238639   7.461   4.592   6.380 -1.1608 -0.0114 -0.1729
12407SOL     OW38640   0.561   4.616   2.787 -0.2657 -0.1859 -1.3930
12407SOL    HW138641   0.532   4.578   2.704 -0.0969  2.3717 -2.7026
12407SOL    HW238642   0.572   4.709   2.769  0.1313  0.4124  1.4256
12408SOL     OW38643   1.229   6.294   6.142 -0.1817  0.2727  0.4802
12408SOL    HW138644   1.162   6.225   6.138 -0.2034  0.3652 -1.3444
12408SOL    HW238645   1.202   6.349   6.216 -2.4712  0.6490 -0.5379
12409SOL     OW38646   0.083   7.477   0.138 -0.2808 -0.3968  0.0977
12409SOL    HW138647   0.023   7.419   0.185  0.9868 -0.5355  1.6130
12409SOL    HW238648   0.165   7.427   0.133  0.3657  0.6421  0.0403
12410SOL     OW38649   0.710   7.463   2.348 -0.2165 -0.2615 -0.5636
12410SOL    HW138650   0.795   7.427   2.373 -0.2210 -1.1720 -1.7526
12410SOL    HW238651   0.713   7.468   2.253 -0.3492  2.6424 -0.5054
12411SOL     OW38652   1.170   7.966   4.504 -0.4744  0.5193 -0.1510
12411SOL    HW138653   1.203   7.929   4.422 -2.7239 -0.9423 -0.5062
12411SOL    HW238654   1.090   8.012   4.478 -0.6681  0.9097  1.0760
12412SOL     OW38655   6.178   1.200   2.241  0.7776  0.1745  0.4495
12412SOL    HW138656   6.113   1.189   2.310 -0.1173 -0.3338 -0.4369
12412SOL    HW238657   6.259   1.222   2.287  0.8137 -2.5353  1.8332
12413SOL     OW38658   1.269   4.348   6.246 -0.0427  0.6015  0.4754
12413SOL    HW138659   1.208   4.275   6.231 -0.4534  0.8095  1.1041
12413SOL    HW238660   1.278   4.390   6.160 -2.4684  1.8688  0.7669
12414SOL     OW38661   0.066   1.427   2.789  0.1164 -0.2488 -0.1564
12414SOL    HW138662   0.060   1.362   2.719 -0.4427 -1.1312  0.6816
12414SOL    HW238663  -0.023   1.461   2.798 -0.6916 -2.5682  2.2974
12415SOL     OW38664   7.302   0.099   7.506 -0.0274  0.0064 -0.1341
12415SOL    HW138665   7.285   0.053   7.589 -1.0306  3.5522  1.8644
12415SOL    HW238666   7.395   0.084   7.489  0.6182  0.4193  2.5575
12416SOL     OW38667   3.207   7.920   4.916 -0.3876  0.2079 -0.2138
12416SOL    HW138668   3.158   7.934   4.996  0.7292  1.0675  0.3414
12416SOL    HW238669   3.141   7.923   4.846 -1.3180 -0.2252  0.6343
12417SOL     OW38670   0.165   6.187   6.732 -0.6258  0.6170 -0.3866
12417SOL    HW138671   0.122   6.266   6.764 -2.3884 -0.4908  0.1062
12417SOL    HW238672   0.242   6.219   6.685 -0.5283  2.5379  0.9735
12418SOL     OW38673   2.601   0.705   3.309 -0.2398  0.0785  0.0111
12418SOL    HW138674   2.530   0.691   3.247 -0.1445  0.5356 -0.2096
12418SOL    HW238675   2.624   0.618   3.341 -1.7382  0.0241  1.0347
12419SOL     OW38676   3.254   2.275   1.510  0.0500  0.0311  0.2258
12419SOL    HW138677   3.321   2.311   1.569 -1.4488 -0.5120  2.4195
12419SOL    HW238678   3.227   2.193   1.552 -0.9850 -0.4874 -1.3469
12420SOL     OW38679   2.119   7.594   0.103  0.2545  0.0811  0.0005
12420SOL    HW138680   2.205   7.590   0.146  0.1151  0.9577  0.3827
12420SOL    HW238681   2.063   7.538   0.156 -0.0588  1.6020  1.3336
12421SOL     OW38682   0.078   3.800   3.428  0.2456  0.2699  0.5329
12421SOL    HW138683   0.001   3.856   3.440 -2.4415 -2.4336 -2.4975
12421SOL    HW238684   0.089   3.756   3.512  0.3540  2.6814  1.8898
12422SOL     OW38685   3.168   1.572   7.016  0.3134  0.1989  0.9653
12422SOL    HW138686   3.087   1.574   7.068 -1.6095  0.3222 -1.8415
12422SOL    HW238687   3.181   1.662   6.988 -0.0794 -0.2327 -0.7096
12423SOL     OW38688   2.707   6.095   3.242 -0.0384  0.0570 -0.1851
12423SOL    HW138689   2.796   6.090   3.277 -0.2092  0.5571  0.3265
12423SOL    HW238690   2.659   6.027   3.290 -0.2591  0.7053  0.5318
12424SOL     OW38691   1.562   6.623   2.731 -0.0943  0.4742  0.3610
12424SOL    HW138692   1.541   6.555   2.795 -2.9148  0.6579 -0.2682
12424SOL    HW238693   1.610   6.576   2.662 -1.4412 -0.7988  0.2388
12425SOL     OW38694   4.935   5.189   2.598 -0.3553  0.6270 -0.0831
12425SOL    HW138695   4.912   5.202   2.505  1.0022 -1.1780 -0.7162
12425SOL    HW238696   4.950   5.095   2.606  1.1769  0.9742  1.5933
12426SOL     OW38697   7.450   4.504   5.782 -0.3940 -0.3112  0.7422
12426SOL    HW138698   7.360   4.532   5.771 -0.8870 -2.4364 -1.8044
12426SOL    HW238699   7.450   4.454   5.864 -1.5279 -0.2709  0.7831
12427SOL     OW38700   5.306   6.559   5.121 -0.3107 -0.3565  0.0790
12427SOL    HW138701   5.315   6.524   5.032  0.0465 -0.7819  0.2836
12427SOL    HW238702   5.395   6.564   5.154 -0.5219 -1.2101  0.8019
12428SOL     OW38703   4.735   3.824   5.268 -0.2245 -0.3530  0.3758
12428SOL    HW138704   4.691   3.887   5.326  0.2166  0.1106  0.2132
12428SOL    HW238705   4.725   3.740   5.312 -0.9404 -0.1932  0.5312
12429SOL     OW38706   1.989   0.516   7.636 -0.7446  0.2985  0.5652
12429SOL    HW138707   2.012   0.589   7.579  0.5941  0.5258  1.3339
12429SOL    HW238708   1.943   0.557   7.710  0.5236  0.4892  1.2877
12430SOL     OW38709   6.521   7.435   0.592 -0.3280  0.7086  0.1077
12430SOL    HW138710   6.565   7.418   0.509  0.3725  0.4783  0.5139
12430SOL    HW238711   6.516   7.349   0.635 -0.2867  0.8895  0.4833
12431SOL     OW38712   1.380   4.636   3.604  0.7189  0.4354  0.2462
12431SOL    HW138713   1.376   4.551   3.649  0.9238  0.3634  0.1334
12431SOL    HW238714   1.303   4.637   3.547  1.5125 -0.3257 -0.8824
12432SOL     OW38715   5.392   6.967   4.907 -0.0418  0.0727 -0.0864
12432SOL    HW138716   5.416   7.044   4.857 -1.7492  0.3276 -0.5885
12432SOL    HW238717   5.356   7.001   4.989  1.2969 -0.2934  0.6854
12433SOL     OW38718   7.231   2.349   3.390 -0.1497  0.3090 -0.0627
12433SOL    HW138719   7.294   2.393   3.332 -0.0307 -2.4099 -2.2078
12433SOL    HW238720   7.262   2.258   3.395 -1.9256 -0.2692  1.7928
12434SOL     OW38721   6.510   6.626   4.792 -0.0797  0.0177 -0.0997
12434SOL    HW138722   6.527   6.590   4.705  1.8339 -0.9624  0.6175
12434SOL    HW238723   6.579   6.692   4.805 -1.2629  1.2657  0.1082
12435SOL     OW38724   4.512   4.098   3.350 -0.5598  0.0314 -0.0619
12435SOL    HW138725   4.544   4.103   3.440  0.2534  3.2317 -0.3848
12435SOL    HW238726   4.485   4.188   3.329 -0.1811 -0.4483 -3.1721
12436SOL     OW38727   6.488   5.880   6.774  0.2276  0.3980  0.1699
12436SOL    HW138728   6.487   5.873   6.679 -0.8435 -2.0711  0.3009
12436SOL    HW238729   6.510   5.972   6.791  0.7303  0.8257 -2.4242
12437SOL     OW38730   0.984   6.701   4.898 -0.4567 -0.5923 -0.0788
12437SOL    HW138731   0.954   6.645   4.826  0.9455  0.0936 -1.2532
12437SOL    HW238732   1.065   6.661   4.928 -1.6881 -1.6431  2.1174
12438SOL     OW38733   2.905   3.447   8.016 -0.2126  0.5614  0.5927
12438SOL    HW138734   2.811   3.460   8.004 -0.6987  0.0180  3.1469
12438SOL    HW238735   2.924   3.364   7.973 -1.1477  0.1514  0.9470
12439SOL     OW38736   3.241   2.284   7.214  0.0238 -0.3894  0.0040
12439SOL    HW138737   3.274   2.196   7.199  2.1421  0.4592 -0.7095
12439SOL    HW238738   3.212   2.314   7.128  0.4817  0.0217 -0.0159
12440SOL     OW38739   3.871   0.305   3.624 -0.5213  0.5148  0.1333
12440SOL    HW138740   3.794   0.270   3.669 -1.2130  1.7702 -0.0065
12440SOL    HW238741   3.871   0.398   3.647  0.9453  0.5440  0.0945
12441SOL     OW38742   1.686   2.754   3.079  0.0312  0.2701  0.1476
12441SOL    HW138743   1.703   2.663   3.055 -2.0819  0.1472 -1.1121
12441SOL    HW238744   1.712   2.759   3.171  2.0672 -1.0421 -0.2871
12442SOL     OW38745   3.813   7.553   1.716 -0.2527  0.1860 -0.2590
12442SOL    HW138746   3.893   7.548   1.664 -1.0645 -1.0631 -1.4789
12442SOL    HW238747   3.802   7.465   1.753 -1.5312  0.0308 -0.9226
12443SOL     OW38748   6.590   2.726   2.208 -0.0483 -0.3510  0.6617
12443SOL    HW138749   6.606   2.632   2.218 -0.1966 -0.3309  1.1402
12443SOL    HW238750   6.535   2.733   2.130 -0.3163 -0.6926  0.8164
12444SOL     OW38751   7.034   1.298   4.218  0.5975 -0.3297  0.3020
12444SOL    HW138752   7.064   1.218   4.175 -1.9456 -0.4374 -1.5154
12444SOL    HW238753   6.944   1.279   4.244 -0.0855  1.9033 -0.2025
12445SOL     OW38754   5.166   0.585   4.546  0.3817 -0.1874  0.7043
12445SOL    HW138755   5.157   0.533   4.467  2.1895 -1.0902  1.0267
12445SOL    HW238756   5.096   0.555   4.603 -0.1025 -0.4973 -0.0468
12446SOL     OW38757   3.713   3.702   1.637  0.2683  0.0081  0.0416
12446SOL    HW138758   3.707   3.649   1.558  1.1164 -1.2088  0.7555
12446SOL    HW238759   3.806   3.722   1.646  0.1919  0.0829  0.7579
12447SOL     OW38760   1.539   0.427   1.190 -0.2096 -1.0065  0.5023
12447SOL    HW138761   1.620   0.376   1.189  0.5291  0.0818  1.9132
12447SOL    HW238762   1.478   0.375   1.138  1.1046 -2.3146  0.1885
12448SOL     OW38763   5.710   4.226   4.700 -0.3809  0.8622 -0.1341
12448SOL    HW138764   5.661   4.240   4.781  0.0546 -2.0466  0.7350
12448SOL    HW238765   5.644   4.196   4.637 -0.0294 -2.0217  0.7369
12449SOL     OW38766   3.182   3.585   5.088  0.2226 -0.0845 -0.1439
12449SOL    HW138767   3.147   3.503   5.123  0.4702 -0.1671 -0.0924
12449SOL    HW238768   3.187   3.643   5.164  0.6746 -0.2349 -0.0548
12450SOL     OW38769   7.375   7.508   4.125  0.2749  0.2356 -0.2000
12450SOL    HW138770   7.355   7.514   4.218  0.5619 -0.2472 -0.1014
12450SOL    HW238771   7.434   7.580   4.107 -2.0510  2.1677 -0.6514
12451SOL     OW38772   8.057   4.288   0.580  0.5491 -0.1811 -0.1291
12451SOL    HW138773   7.969   4.318   0.558  0.7577 -0.6889 -1.7839
12451SOL    HW238774   8.074   4.217   0.518  1.8026 -0.6631  0.7315
12452SOL     OW38775   7.571   5.896   7.829  0.5304  0.2282  0.1430
12452SOL    HW138776   7.652   5.851   7.806  0.5964  0.3467  0.1393
12452SOL    HW238777   7.504   5.851   7.778  0.6230  0.2563 -0.0085
12453SOL     OW38778   1.309   2.365   5.351 -0.1161 -0.4479  0.0177
12453SOL    HW138779   1.342   2.398   5.435  1.7067  0.6070 -1.0260
12453SOL    HW238780   1.384   2.321   5.311 -1.1873 -1.6867 -0.7206
12454SOL     OW38781   0.104   5.102   1.754 -0.8377  0.2480  0.2808
12454SOL    HW138782   0.036   5.164   1.731 -0.9824  0.7813  2.0235
12454SOL    HW238783   0.091   5.084   1.848 -0.3182 -1.8102  0.0251
12455SOL     OW38784   6.930   3.975   5.737 -0.3505  0.3523 -0.2619
12455SOL    HW138785   7.023   3.977   5.712 -0.3350 -1.8951 -0.5330
12455SOL    HW238786   6.924   3.908   5.805 -1.7717  0.5110 -0.1977
12456SOL     OW38787   3.692   7.418   0.669 -0.4031 -0.0937 -0.4746
12456SOL    HW138788   3.770   7.466   0.641 -1.1294  0.0739 -2.3751
12456SOL    HW238789   3.691   7.340   0.614 -2.1994  0.5041 -1.3663
12457SOL     OW38790   7.696   0.836   7.360  0.5188  0.4233  0.6281
12457SOL    HW138791   7.646   0.910   7.395 -0.5739 -0.0794  0.1622
12457SOL    HW238792   7.643   0.759   7.378  1.3798 -0.1994  0.5973
12458SOL     OW38793   0.468   7.040   5.753 -0.4099 -0.0717 -0.5685
12458SOL    HW138794   0.449   7.052   5.846  2.1036  3.0941 -0.2868
12458SOL    HW238795   0.525   6.963   5.751  1.5591  1.2368  0.9664
12459SOL     OW38796   6.017   1.367   0.749 -0.5605 -0.0033 -0.2487
12459SOL    HW138797   6.006   1.445   0.803  0.5035  0.8494 -1.2049
12459SOL    HW238798   6.080   1.314   0.796 -0.3318  0.3056 -0.2032
12460SOL     OW38799   2.759   4.865   4.584 -0.4479 -0.0198 -0.2429
12460SOL    HW138800   2.694   4.907   4.641 -0.6898  1.9940 -1.8898
12460SOL    HW238801   2.752   4.912   4.501  1.9776 -0.8421 -0.9924
12461SOL     OW38802   1.840   4.198   3.352 -0.2831  0.0723 -0.7368
12461SOL    HW138803   1.817   4.253   3.427 -0.7448  0.7738 -1.3809
12461SOL    HW238804   1.936   4.200   3.349 -0.1758 -1.1275  0.6757
12462SOL     OW38805   2.820   2.752   3.934  0.2604 -0.2569  0.3348
12462SOL    HW138806   2.840   2.680   3.875  1.0714  0.3749 -0.1713
12462SOL    HW238807   2.724   2.754   3.938  0.1574  0.0931 -1.4666
12463SOL     OW38808   5.371   3.957   0.312 -0.5282  0.0640 -0.0468
12463SOL    HW138809   5.443   4.020   0.309 -0.2841 -0.2181 -0.1045
12463SOL    HW238810   5.311   3.985   0.243 -0.8829  0.7919  0.5394
12464SOL     OW38811   6.286   0.142   5.419  0.0805  0.3041  0.3578
12464SOL    HW138812   6.209   0.189   5.387 -0.0664  0.4931  0.9779
12464SOL    HW238813   6.255   0.052   5.431  0.7153 -0.3140 -2.1384
12465SOL     OW38814   2.333   8.036   3.089 -0.6580 -0.2612  0.6597
12465SOL    HW138815   2.407   8.051   3.149 -0.1520  1.2548 -0.2707
12465SOL    HW238816   2.370   7.984   3.018 -0.8705 -0.7686  0.9191
12466SOL     OW38817   4.060   5.977   4.341 -0.3034  0.3942 -0.2241
12466SOL    HW138818   4.122   6.012   4.277  0.4026  0.3990  0.4459
12466SOL    HW238819   4.005   5.917   4.291 -0.7514  1.5229 -1.1466
12467SOL     OW38820   3.045   5.010   7.541  0.1976 -0.5041 -0.1258
12467SOL    HW138821   3.108   4.990   7.611  0.7965 -0.5634 -0.6742
12467SOL    HW238822   3.040   5.106   7.541  0.3159 -0.4975 -0.1111
12468SOL     OW38823   3.231   1.836   5.618 -0.0555  0.0642  0.2287
12468SOL    HW138824   3.262   1.867   5.533  1.5070 -2.3134 -0.1402
12468SOL    HW238825   3.276   1.892   5.681  1.0060  0.0241 -0.4610
12469SOL     OW38826   5.308   6.482   2.123 -0.2966  0.4667  0.4005
12469SOL    HW138827   5.362   6.501   2.200 -0.0230 -0.2305  0.3950
12469SOL    HW238828   5.366   6.432   2.065 -0.5693  0.7901 -0.1600
12470SOL     OW38829   4.970   5.219   7.934  0.4843 -0.3066  0.7961
12470SOL    HW138830   5.033   5.163   7.979  0.4816 -0.3718  0.7195
12470SOL    HW238831   5.020   5.258   7.862  0.7481  0.5469  1.4187
12471SOL     OW38832   3.888   6.474   6.888 -0.1316 -0.0545 -0.2254
12471SOL    HW138833   3.835   6.411   6.936 -0.0574  1.5513  2.1194
12471SOL    HW238834   3.836   6.554   6.887  1.8705  1.3831  1.5625
12472SOL     OW38835   3.577   6.348   3.765  0.0219  0.0200  0.4186
12472SOL    HW138836   3.485   6.335   3.788 -0.1843 -2.7623 -1.5205
12472SOL    HW238837   3.576   6.378   3.674  0.9897 -1.0678  0.0145
12473SOL     OW38838   3.026   0.162   7.564  0.0418  1.0783 -0.3721
12473SOL    HW138839   3.119   0.154   7.544  0.2424  2.8056 -0.2515
12473SOL    HW238840   2.988   0.078   7.535  2.0060 -0.7966  2.0237
12474SOL     OW38841   2.936   1.434   2.083 -0.6675 -0.2081 -1.0266
12474SOL    HW138842   3.010   1.431   2.022 -0.6365 -1.4472 -0.9528
12474SOL    HW238843   2.884   1.357   2.062  0.7204 -2.2505  2.1645
12475SOL     OW38844   2.879   4.397   4.422 -0.2931 -0.0982 -0.5252
12475SOL    HW138845   2.897   4.490   4.407 -2.2880  0.4351  0.0737
12475SOL    HW238846   2.784   4.392   4.431 -0.1454 -2.0286  0.5570
12476SOL     OW38847   5.635   7.382   3.009 -0.4414 -0.3153 -0.0312
12476SOL    HW138848   5.617   7.313   3.074 -0.2975  0.6582  1.0764
12476SOL    HW238849   5.671   7.335   2.934 -2.1706 -1.6562 -0.0722
12477SOL     OW38850   3.089   6.248   2.981  0.0736  0.0426  0.6268
12477SOL    HW138851   3.094   6.259   2.886 -0.0096 -1.1685  0.4704
12477SOL    HW238852   3.150   6.177   3.000 -0.8607 -0.5954  1.3151
12478SOL     OW38853   7.682   7.593   4.072 -0.0199 -0.6003  0.5530
12478SOL    HW138854   7.690   7.622   3.981  0.1379 -0.0005  0.7521
12478SOL    HW238855   7.772   7.583   4.102 -0.0395  0.9523  1.1814
12479SOL     OW38856   7.732   7.954   6.654 -0.0281 -0.4371 -0.1398
12479SOL    HW138857   7.715   7.955   6.560  1.2295  0.3152 -0.3797
12479SOL    HW238858   7.803   7.890   6.666  0.0614 -0.2739  0.2446
12480SOL     OW38859   5.111   5.897   1.230  0.3350  0.1568 -0.4883
12480SOL    HW138860   5.018   5.918   1.230  0.3564  0.8535  2.7670
12480SOL    HW238861   5.117   5.810   1.270  1.0206 -0.8270 -2.5982
12481SOL     OW38862   3.166   2.157   3.942  0.1128 -0.2250 -0.2855
12481SOL    HW138863   3.095   2.210   3.977  0.4465 -1.1665  1.9832
12481SOL    HW238864   3.215   2.217   3.885 -0.9962  1.1397  0.1395
12482SOL     OW38865   2.251   6.235   3.200 -0.2122 -0.5223 -0.1606
12482SOL    HW138866   2.345   6.244   3.184 -0.1271 -0.1148  0.5061
12482SOL    HW238867   2.223   6.322   3.226 -0.2020 -1.1667  2.3602
12483SOL     OW38868   2.277   1.282   3.964  0.0207 -0.4937  0.5492
12483SOL    HW138869   2.220   1.244   4.031 -1.6283  1.2419  0.2203
12483SOL    HW238870   2.314   1.360   4.004 -1.2523  0.7613 -0.5928
12484SOL     OW38871   5.594   3.024   7.426  0.0362 -0.2277  0.0460
12484SOL    HW138872   5.623   3.073   7.504  1.4693 -1.1787  0.1620
12484SOL    HW238873   5.529   3.080   7.385  0.2427  0.9092  1.2033
12485SOL     OW38874   5.554   1.402   0.164  0.0053  0.4997  1.1206
12485SOL    HW138875   5.515   1.486   0.138  0.1443  0.3543  0.4167
12485SOL    HW238876   5.545   1.347   0.086 -0.8902 -0.4400  1.8678
12486SOL     OW38877   4.781   4.509   4.212 -0.1974  0.7590 -0.5332
12486SOL    HW138878   4.789   4.532   4.304 -2.2029  0.7905 -0.3267
12486SOL    HW238879   4.710   4.564   4.179 -1.1663 -0.9355 -1.4621
12487SOL     OW38880   7.141   1.370   0.215 -0.2338  0.1176 -0.2577
12487SOL    HW138881   7.197   1.347   0.289  0.1974  0.2272 -0.5451
12487SOL    HW238882   7.173   1.317   0.143 -0.5530  0.1250 -0.4058
12488SOL     OW38883   1.432   0.379   0.717 -0.5241  0.0701 -0.5085
12488SOL    HW138884   1.440   0.462   0.670  1.8502  0.4864  0.4940
12488SOL    HW238885   1.487   0.318   0.668 -0.1369 -0.1924  0.2361
12489SOL     OW38886   6.314   0.649   0.051  0.1345  0.0202 -0.0696
12489SOL    HW138887   6.276   0.649  -0.037  1.4472  0.7018 -0.6595
12489SOL    HW238888   6.264   0.715   0.099  0.5362  0.8785 -0.8203
12490SOL     OW38889   4.844   4.244   2.109  0.2466 -0.0839 -0.3547
12490SOL    HW138890   4.775   4.307   2.130  0.7935  1.1718 -2.1120
12490SOL    HW238891   4.836   4.230   2.015 -0.2407 -3.1742  0.0531
12491SOL     OW38892   5.706   2.148   1.399  0.1754 -0.2034 -0.1174
12491SOL    HW138893   5.749   2.148   1.313 -0.5710  0.8379 -0.4974
12491SOL    HW238894   5.616   2.123   1.381  0.2661 -1.0387  0.5127
12492SOL     OW38895   3.213   3.517   0.731  0.8424  0.6803 -0.1943
12492SOL    HW138896   3.280   3.456   0.761  0.9192  0.4352 -0.8498
12492SOL    HW238897   3.184   3.482   0.647 -1.4557 -0.2614  0.9168
12493SOL     OW38898   7.882   4.835   1.657  0.0010 -0.3676  0.2226
12493SOL    HW138899   7.820   4.908   1.655 -0.3547 -0.6854 -0.7904
12493SOL    HW238900   7.856   4.784   1.733 -0.5466 -0.1232  0.2047
12494SOL     OW38901   7.963   7.476   6.648 -0.3979  0.2383 -0.1518
12494SOL    HW138902   7.989   7.450   6.559 -0.7897  1.2409 -0.5661
12494SOL    HW238903   7.979   7.397   6.701  2.6852  0.4790 -0.5298
12495SOL     OW38904   1.280   5.211   7.138 -0.3253  0.3316 -0.5074
12495SOL    HW138905   1.189   5.241   7.141 -0.1518  0.8153 -0.0306
12495SOL    HW238906   1.331   5.289   7.120  0.2305  0.5766  1.8214
12496SOL     OW38907   1.252   1.566   7.980  0.2208  0.3393  0.1942
12496SOL    HW138908   1.210   1.634   8.033 -1.2949  0.1562 -0.6959
12496SOL    HW238909   1.280   1.611   7.900  0.1027  0.1149  0.0238
12497SOL     OW38910   3.813   5.175   3.867  0.2202  0.1672 -0.0882
12497SOL    HW138911   3.752   5.245   3.848 -0.6636 -0.4523  0.4204
12497SOL    HW238912   3.811   5.119   3.789  0.6619  0.5117 -0.3503
12498SOL     OW38913   0.354   4.978   3.266 -0.5099 -0.0366  0.3978
12498SOL    HW138914   0.329   5.027   3.188 -1.2398  0.3399  0.8603
12498SOL    HW238915   0.360   5.044   3.336  1.5054 -0.1411  0.3909
12499SOL     OW38916   0.714   5.303   7.453  0.1650  0.0025  0.1382
12499SOL    HW138917   0.633   5.339   7.416  0.6631 -0.9547 -2.0523
12499SOL    HW238918   0.778   5.373   7.439 -0.1247  0.5296  1.3348
12500SOL     OW38919   2.538   3.910   7.753  0.3652  0.6919  0.1991
12500SOL    HW138920   2.612   3.864   7.713  0.7926  1.7883 -0.3184
12500SOL    HW238921   2.534   3.994   7.706 -1.7152  0.3449 -0.3403
12501SOL     OW38922   0.812   0.655   5.447 -0.1455  0.4017 -0.1041
12501SOL    HW138923   0.865   0.607   5.384 -0.6311  0.0056 -0.2229
12501SOL    HW238924   0.875   0.698   5.504  0.3112 -0.3690 -0.0052
12502SOL     OW38925   2.920   5.524   4.394 -0.2633  0.1174 -0.3032
12502SOL    HW138926   2.897   5.431   4.389 -1.0972  0.3051 -0.0724
12502SOL    HW238927   2.873   5.556   4.471  1.1643  0.4163  0.4816
12503SOL     OW38928   2.323   8.034   3.776 -0.2411  0.2992 -0.3070
12503SOL    HW138929   2.276   8.095   3.720 -2.0201 -0.4588  0.2891
12503SOL    HW238930   2.296   8.056   3.865  0.5291 -0.1787  0.0646
12504SOL     OW38931   6.076   2.556   5.122 -0.3296  0.6849  0.0589
12504SOL    HW138932   6.022   2.480   5.147  1.2498 -0.4540  0.1710
12504SOL    HW238933   6.072   2.558   5.027 -0.6982  0.7079  0.0735
12505SOL     OW38934   4.119   6.080   2.764  0.0594  0.2701 -0.2211
12505SOL    HW138935   4.199   6.096   2.816 -0.1149  2.5846 -0.5586
12505SOL    HW238936   4.118   5.986   2.750  2.0491  0.0259  0.9093
12506SOL     OW38937   4.027   6.591   1.643 -0.3802 -0.8769  0.6877
12506SOL    HW138938   3.960   6.659   1.638  2.0498  1.6159 -0.6584
12506SOL    HW238939   4.083   6.617   1.716  1.2955 -0.6418 -0.6162
12507SOL     OW38940   4.172   4.457   2.175  0.0223 -0.0286  0.1316
12507SOL    HW138941   4.206   4.491   2.258 -0.8830 -0.2823  0.6092
12507SOL    HW238942   4.117   4.527   2.141 -1.3895 -0.7576  0.8391
12508SOL     OW38943   1.988   6.707   5.768 -0.2344  0.3448 -0.0761
12508SOL    HW138944   2.034   6.659   5.698 -1.0546 -2.1835  1.0226
12508SOL    HW238945   1.924   6.761   5.722  1.3572  1.1870 -1.4194
12509SOL     OW38946   3.887   8.023   7.009 -0.5650 -0.5152 -0.0120
12509SOL    HW138947   3.897   8.052   7.099 -1.3728 -0.2358 -0.0084
12509SOL    HW238948   3.801   7.981   7.006  0.0610 -1.8415 -0.3084
12510SOL     OW38949   6.506   4.764   2.726 -0.7494 -0.2672  0.0365
12510SOL    HW138950   6.473   4.845   2.688  2.3950  0.8000 -0.6684
12510SOL    HW238951   6.561   4.792   2.799  0.4745 -1.7503 -0.2773
12511SOL     OW38952   5.489   0.496   0.449 -0.5412  0.4196  0.7635
12511SOL    HW138953   5.538   0.459   0.523  0.2797 -1.8130 -0.7879
12511SOL    HW238954   5.410   0.443   0.443  0.2168 -0.5750 -0.9659
12512SOL     OW38955   4.682   0.007   0.296  0.1353  0.2802  0.4865
12512SOL    HW138956   4.761   0.060   0.297  0.3875  0.0484 -1.6532
12512SOL    HW238957   4.611   0.070   0.282  0.1875  0.2925  0.2652
12513SOL     OW38958   7.085   2.193   4.684  0.5161  0.1449 -0.3772
12513SOL    HW138959   7.152   2.149   4.736 -1.4887 -1.3045  1.1735
12513SOL    HW238960   7.090   2.284   4.712  1.6038 -0.0014 -0.0401
12514SOL     OW38961   0.049   3.979   3.083 -0.1506  0.3611  0.3376
12514SOL    HW138962   0.073   3.914   3.149 -1.3381  0.2056  0.6538
12514SOL    HW238963  -0.042   4.001   3.104 -0.6145  0.1765 -1.3447
12515SOL     OW38964   1.499   1.433   7.616 -0.3178 -0.3905 -0.2010
12515SOL    HW138965   1.483   1.338   7.612  2.1409 -1.0018  1.8983
12515SOL    HW238966   1.528   1.449   7.706 -1.2018  2.4997 -0.3259
12516SOL     OW38967   3.262   3.793   5.264  0.2733 -0.2601  0.1660
12516SOL    HW138968   3.281   3.832   5.349  0.6124 -2.2618  1.0646
12516SOL    HW238969   3.234   3.867   5.209 -0.9785  0.9400  2.2895
12517SOL     OW38970   2.739   5.462   1.384 -0.0808  0.1779  0.5530
12517SOL    HW138971   2.718   5.491   1.295 -1.1892 -0.6123  0.5302
12517SOL    HW238972   2.834   5.471   1.391 -0.1914  2.2466  0.0290
12518SOL     OW38973   3.877   3.272   6.216 -0.4516  0.1836 -0.3160
12518SOL    HW138974   3.807   3.244   6.157 -1.5391 -0.7828  1.3346
12518SOL    HW238975   3.833   3.284   6.301  1.3045  0.0348  0.6600
12519SOL     OW38976   4.596   3.874   3.997 -0.0871  0.6431 -0.6978
12519SOL    HW138977   4.691   3.870   4.006 -0.2205 -0.4114  0.6625
12519SOL    HW238978   4.572   3.795   3.950 -0.5963 -1.7243  3.1030
12520SOL     OW38979   7.328   6.460   6.283  0.2564 -0.6463  0.0557
12520SOL    HW138980   7.299   6.533   6.338  0.0812 -0.1868 -0.6305
12520SOL    HW238981   7.290   6.478   6.197  0.3609 -1.4560 -0.1747
12521SOL     OW38982   5.304   2.947   2.559 -0.4052  0.0490  0.4048
12521SOL    HW138983   5.396   2.929   2.580  0.7593  1.6193 -2.6753
12521SOL    HW238984   5.293   3.040   2.580 -0.1217  0.8177 -2.3999
12522SOL     OW38985   6.847   4.157   4.722  0.7987 -0.0885  0.3596
12522SOL    HW138986   6.892   4.197   4.647 -1.3807 -2.4481 -2.4312
12522SOL    HW238987   6.766   4.207   4.730 -0.9634 -2.3368 -1.8049
12523SOL     OW38988   4.387   0.810   2.223  0.4724  0.4227  0.1569
12523SOL    HW138989   4.461   0.832   2.166 -0.4583  2.5272 -0.3607
12523SOL    HW238990   4.338   0.893   2.231 -0.4202 -0.2660  2.5613
12524SOL     OW38991   1.897   1.685   7.406  0.0218 -0.3187 -0.1293
12524SOL    HW138992   1.821   1.670   7.462  0.3625 -2.2894 -0.1174
12524SOL    HW238993   1.969   1.639   7.450  0.7475 -0.2436 -1.1943
12525SOL     OW38994   7.634   3.934   4.692  0.3345 -0.1575 -0.0810
12525SOL    HW138995   7.623   3.847   4.730  2.6176 -1.0520 -1.2631
12525SOL    HW238996   7.719   3.963   4.724 -0.7691  2.0898  1.0073
12526SOL     OW38997   7.008   4.985   7.253  0.2633  0.2803 -0.2799
12526SOL    HW138998   7.052   4.995   7.337 -1.1447  0.5539  0.4429
12526SOL    HW238999   7.077   4.956   7.194  1.0878 -0.8928  1.1851
12527SOL     OW39000   4.955   4.613   2.075 -0.2952 -0.2571  0.7864
12527SOL    HW139001   4.940   4.682   2.011  0.1264 -0.7953  0.0928
12527SOL    HW239002   5.048   4.591   2.065 -0.8647 -2.4280 -0.5826
12528SOL     OW39003   0.859   0.017   1.203  0.4149 -0.0571 -0.4467
12528SOL    HW139004   0.905   0.019   1.119 -0.4541 -0.2807 -0.9393
12528SOL    HW239005   0.920  -0.026   1.263  1.1380  0.3196 -0.9012
12529SOL     OW39006   7.333   1.971   2.426  0.3228 -0.7218 -0.2293
12529SOL    HW139007   7.314   1.968   2.333 -1.4350  0.3045  0.0452
12529SOL    HW239008   7.377   1.889   2.445  0.1179 -1.2310 -1.8391
12530SOL     OW39009   3.809   5.460   0.327 -0.1356  0.3867  0.1528
12530SOL    HW139010   3.763   5.440   0.409  0.1978  1.1922  0.5520
12530SOL    HW239011   3.787   5.552   0.309  0.3450  0.4191 -0.2874
12531SOL     OW39012   2.553   7.826   1.046  0.9645  0.0217  0.2346
12531SOL    HW139013   2.636   7.781   1.029  0.1483 -1.8788  1.0031
12531SOL    HW239014   2.496   7.798   0.973  0.3786 -0.3979  0.8429
12532SOL     OW39015   4.253   2.084   6.180 -0.6804  0.8326 -0.2801
12532SOL    HW139016   4.265   2.152   6.247 -1.9920  0.7150  0.1108
12532SOL    HW239017   4.215   2.010   6.228 -0.1160  0.1425 -0.8740
12533SOL     OW39018   1.743   4.821   2.110  0.8147 -0.0455 -0.8992
12533SOL    HW139019   1.710   4.792   2.025 -0.2350  0.8724 -0.8281
12533SOL    HW239020   1.728   4.746   2.168 -2.8964  0.8427 -0.4583
12534SOL     OW39021   7.284   3.294   2.952  0.0367 -0.3699 -0.4436
12534SOL    HW139022   7.347   3.312   3.022  0.1821 -1.7408 -0.1924
12534SOL    HW239023   7.257   3.203   2.967 -0.4464 -0.4646 -1.7619
12535SOL     OW39024   2.201   1.601   1.415  0.0929  0.3181 -0.3075
12535SOL    HW139025   2.291   1.595   1.448  1.3026  1.0774 -3.1226
12535SOL    HW239026   2.178   1.693   1.424 -0.3896  0.1410  0.3282
12536SOL     OW39027   0.273   2.833   4.137  0.1475 -0.0441  0.2466
12536SOL    HW139028   0.231   2.866   4.217 -0.6478 -0.7654  0.1395
12536SOL    HW239029   0.315   2.910   4.100 -2.6305  1.2002 -0.6136
12537SOL     OW39030   4.953   7.134   0.402  0.1440  0.9600  0.9177
12537SOL    HW139031   5.025   7.144   0.340 -0.7129  0.6611 -0.1605
12537SOL    HW239032   4.881   7.185   0.364 -0.2306  1.2625  1.9758
12538SOL     OW39033   3.142   0.740   4.425  0.0791  0.1605  0.0991
12538SOL    HW139034   3.157   0.645   4.427  0.6330  0.2380 -0.1110
12538SOL    HW239035   3.093   0.759   4.504  2.9951  0.2011  2.0498
12539SOL     OW39036   3.483   5.748   3.358  0.3265 -0.3481  0.2407
12539SOL    HW139037   3.439   5.682   3.412  0.5057 -0.8012 -0.1517
12539SOL    HW239038   3.537   5.797   3.419 -0.3946 -0.0656  0.6594
12540SOL     OW39039   6.817   3.965   3.178  0.0806 -0.1921 -0.0272
12540SOL    HW139040   6.811   4.046   3.229 -0.3485 -0.2686  0.0399
12540SOL    HW239041   6.911   3.943   3.180  0.4715  1.1866 -1.4158
12541SOL     OW39042   3.166   3.381   2.268 -0.0847  0.4227 -0.6548
12541SOL    HW139043   3.147   3.306   2.212 -0.2147  1.2920 -1.8121
12541SOL    HW239044   3.083   3.430   2.272 -0.1002  0.3242  0.3764
12542SOL     OW39045   0.722   1.862   7.415  0.5740  0.1775 -0.2220
12542SOL    HW139046   0.631   1.867   7.444  1.0879  2.4347  1.3201
12542SOL    HW239047   0.731   1.776   7.376 -1.8134 -0.7048  1.0119
12543SOL     OW39048   5.744   6.725   3.152  0.0195 -0.4981 -0.5431
12543SOL    HW139049   5.735   6.799   3.211 -0.2506 -0.1101 -1.0599
12543SOL    HW239050   5.755   6.649   3.209  0.8358  0.0059 -0.0173
12544SOL     OW39051   3.443   2.074   8.046 -0.1823 -0.0847 -0.2744
12544SOL    HW139052   3.474   2.127   7.973 -1.8240  2.0045  0.4478
12544SOL    HW239053   3.523   2.051   8.094  0.6080  2.0545 -0.4387
12545SOL     OW39054   4.747   0.645   5.600 -0.7313  0.3759  0.4999
12545SOL    HW139055   4.696   0.643   5.681 -0.2499  2.4505  0.9272
12545SOL    HW239056   4.817   0.708   5.618  0.2078 -0.1728 -1.0715
12546SOL     OW39057   1.710   4.343   3.040  0.6510  0.7052  0.0921
12546SOL    HW139058   1.620   4.354   3.069  0.3158 -1.4125 -0.0233
12546SOL    HW239059   1.733   4.427   3.000 -1.0636  1.4560  0.6114
12547SOL     OW39060   6.362   7.642   6.649 -0.5657  0.4701 -0.0310
12547SOL    HW139061   6.382   7.548   6.649 -1.1905  0.3237  0.7056
12547SOL    HW239062   6.371   7.668   6.741 -0.2866  1.1632 -0.2497
12548SOL     OW39063   6.029   1.991   7.148  0.2999 -0.2624 -0.2590
12548SOL    HW139064   6.099   1.999   7.084 -0.3081 -1.6662 -1.1524
12548SOL    HW239065   6.051   1.911   7.197  0.9911  0.9972  1.6409
12549SOL     OW39066   4.473   3.640   6.496  0.2719 -0.1942  0.1050
12549SOL    HW139067   4.458   3.618   6.588  0.4665  1.3864  0.5522
12549SOL    HW239068   4.392   3.684   6.469  1.4203  2.4302  0.5859
12550SOL     OW39069   4.170   1.687   7.296  0.0315 -0.3237 -0.0631
12550SOL    HW139070   4.192   1.604   7.253  0.9483 -0.2396  0.2096
12550SOL    HW239071   4.146   1.745   7.225  3.8342  0.5545 -0.8747
12551SOL     OW39072   3.210   3.646   4.719  0.0101 -0.0797 -0.5054
12551SOL    HW139073   3.277   3.678   4.658 -1.0950 -1.2554 -2.4546
12551SOL    HW239074   3.131   3.695   4.694 -0.5815 -0.9620 -0.3919
12552SOL     OW39075   1.927   4.678   1.571  0.0526  0.2060 -0.6118
12552SOL    HW139076   1.988   4.653   1.501  0.7773 -0.9908  0.4014
12552SOL    HW239077   1.868   4.603   1.580  0.8837 -0.2992  1.0063
12553SOL     OW39078   0.743   2.015   1.989  0.4801 -0.0688 -0.2894
12553SOL    HW139079   0.793   2.024   2.070 -1.9177  1.8103  1.1313
12553SOL    HW239080   0.769   2.092   1.937 -0.5732  0.7088  0.2949
12554SOL     OW39081   0.363   5.065   0.474  0.4664  0.0285 -0.0033
12554SOL    HW139082   0.295   4.998   0.479  1.1164 -0.6264  0.3555
12554SOL    HW239083   0.349   5.120   0.551  1.0628 -0.8254  0.7311
12555SOL     OW39084   3.293   1.680   6.416 -0.4321 -0.2669 -0.1578
12555SOL    HW139085   3.379   1.675   6.458 -0.5961 -0.2209  0.1814
12555SOL    HW239086   3.297   1.760   6.363 -0.4385  0.0048  0.2456
12556SOL     OW39087   7.955   3.166   6.788 -0.3004 -0.2483 -0.5122
12556SOL    HW139088   7.910   3.250   6.780 -2.6700 -1.3621  0.2878
12556SOL    HW239089   7.961   3.152   6.883  0.2417 -0.9207 -0.6391
12557SOL     OW39090   4.925   0.820   5.719  0.3212  0.8242 -0.5642
12557SOL    HW139091   4.853   0.808   5.782 -0.2636 -1.3501 -1.5449
12557SOL    HW239092   5.004   0.810   5.771 -0.1513 -1.2439 -0.1643
12558SOL     OW39093   4.298   1.594   6.473  0.2998 -0.1978  0.4837
12558SOL    HW139094   4.332   1.561   6.556 -1.3502 -0.5862  1.0501
12558SOL    HW239095   4.322   1.527   6.409  1.5143  0.0674  0.6311
12559SOL     OW39096   5.758   5.691   6.512 -0.4176  0.6033 -0.4864
12559SOL    HW139097   5.792   5.756   6.450 -2.5460  3.2120  0.8600
12559SOL    HW239098   5.832   5.673   6.570  0.5856  0.8347 -1.6510
12560SOL     OW39099   2.031   5.309   3.447 -0.4259 -0.1972  0.6444
12560SOL    HW139100   2.046   5.377   3.513 -0.6523  0.7029 -0.2083
12560SOL    HW239101   2.051   5.227   3.492  0.6164  0.4852  1.4743
12561SOL     OW39102   2.678   0.288   6.110 -0.2858 -0.1345  0.1145
12561SOL    HW139103   2.734   0.214   6.133  1.0841  1.3652  1.9262
12561SOL    HW239104   2.633   0.309   6.192 -0.3688  1.2371 -0.2674
12562SOL     OW39105   4.593   7.526   0.170  0.3943  0.0623 -0.1105
12562SOL    HW139106   4.563   7.610   0.206  0.3853 -0.5852  1.4770
12562SOL    HW239107   4.687   7.526   0.185  0.2559 -0.6365  0.9019
12563SOL     OW39108   6.849   7.266   6.516  0.1141 -0.2949 -0.7005
12563SOL    HW139109   6.816   7.269   6.426 -0.9015  2.6438 -0.3225
12563SOL    HW239110   6.771   7.275   6.571  0.7268 -1.9425  0.5298
12564SOL     OW39111   6.184   1.547   6.369  0.1940 -0.1550 -0.3579
12564SOL    HW139112   6.119   1.572   6.303  1.4701  0.0940 -1.5652
12564SOL    HW239113   6.268   1.562   6.327  1.0553 -2.5252  0.3613
12565SOL     OW39114   2.270   7.169   5.692 -0.0484 -0.4301  0.1256
12565SOL    HW139115   2.181   7.157   5.659 -0.4315  1.0317  0.5598
12565SOL    HW239116   2.263   7.154   5.786 -0.3125  1.6612  0.5045
12566SOL     OW39117   2.005   4.652   1.003  0.5807  0.6464 -0.0677
12566SOL    HW139118   2.031   4.629   0.914  1.5196 -1.1064  0.6180
12566SOL    HW239119   2.061   4.599   1.060  0.6583  2.3868  1.6139
12567SOL     OW39120   7.334   5.753   0.122  0.2455  0.0056 -0.0017
12567SOL    HW139121   7.305   5.819   0.059 -1.1359  0.3994  0.9786
12567SOL    HW239122   7.417   5.720   0.088  0.4528  1.5354 -1.0334
12568SOL     OW39123   3.933   7.835   7.719  0.2144  0.8947 -0.1466
12568SOL    HW139124   3.967   7.924   7.713 -0.0830  1.0626  0.6111
12568SOL    HW239125   3.972   7.799   7.798 -1.0669  0.9710  0.5341
12569SOL     OW39126   2.140   0.398   3.364 -0.3759 -0.1240 -0.1011
12569SOL    HW139127   2.194   0.333   3.318  1.0571  0.5493  0.5614
12569SOL    HW239128   2.106   0.454   3.294  0.8976  0.2405 -0.4565
12570SOL     OW39129   4.928   5.246   6.691 -0.1368  0.4358  0.2139
12570SOL    HW139130   4.970   5.332   6.692 -1.6744  1.2540  1.9017
12570SOL    HW239131   4.986   5.190   6.743  0.2927  0.7859  0.1150
12571SOL     OW39132   0.312   4.647   6.286  0.0646  0.3117 -0.3190
12571SOL    HW139133   0.373   4.712   6.250  0.6782  0.2251  0.5390
12571SOL    HW239134   0.328   4.648   6.380 -0.3092 -0.6884 -0.2312
12572SOL     OW39135   1.871   0.327   6.260 -0.0059  0.4817 -0.1299
12572SOL    HW139136   1.811   0.286   6.198  0.0963 -1.7552  1.1772
12572SOL    HW239137   1.958   0.299   6.232  0.2873  1.8540 -0.6654
12573SOL     OW39138   2.667   0.601   7.851 -0.6026 -0.0238 -0.6219
12573SOL    HW139139   2.685   0.547   7.774  0.4676  2.1645 -1.9807
12573SOL    HW239140   2.630   0.682   7.817  0.3719  1.2075  1.0821
12574SOL     OW39141   1.695   1.057   4.715  0.1142  0.0540 -0.2290
12574SOL    HW139142   1.663   1.045   4.804 -1.7503 -2.0729 -1.0833
12574SOL    HW239143   1.668   1.146   4.692  0.8663  0.7372  1.3629
12575SOL     OW39144   2.342   7.441   2.541  0.2118  0.2244 -0.0842
12575SOL    HW139145   2.329   7.536   2.540 -0.4955  0.1875  1.7019
12575SOL    HW239146   2.264   7.406   2.498  1.4138  0.4568 -2.6509
12576SOL     OW39147   0.715   2.889   7.646 -0.5137 -0.1660  0.5074
12576SOL    HW139148   0.717   2.864   7.739 -0.8378 -0.5233  0.4186
12576SOL    HW239149   0.688   2.981   7.648  2.6202  0.8766  0.9534
12577SOL     OW39150   0.481   1.010   4.937  0.0876  0.3205 -0.0143
12577SOL    HW139151   0.540   1.069   4.889  0.7060 -0.6811 -0.5307
12577SOL    HW239152   0.493   1.034   5.029 -0.5466  1.7662 -0.2822
12578SOL     OW39153   5.641   7.833   3.190 -0.3255 -0.2920 -0.1432
12578SOL    HW139154   5.599   7.844   3.105 -1.5360 -0.8234  0.3552
12578SOL    HW239155   5.633   7.919   3.232  0.5989  0.0712 -0.6935
12579SOL     OW39156   2.646   4.141   2.767 -0.1600  0.1303  0.1370
12579SOL    HW139157   2.690   4.113   2.686  0.4664 -1.3593  0.9458
12579SOL    HW239158   2.567   4.185   2.737  1.2743  1.8851 -1.3378
12580SOL     OW39159   2.127   7.147   4.403  0.2380  0.1490 -0.2123
12580SOL    HW139160   2.191   7.199   4.452 -1.7047  1.4915  1.0516
12580SOL    HW239161   2.056   7.208   4.384 -1.8431 -1.8389  0.7080
12581SOL     OW39162   7.296   0.139   2.616 -1.1768  0.2658 -0.8551
12581SOL    HW139163   7.223   0.078   2.611 -0.1893 -0.8519 -3.1795
12581SOL    HW239164   7.371   0.084   2.640 -0.8096  1.1491  0.1210
12582SOL     OW39165   3.884   3.286   0.087  0.1691 -0.4948  0.4159
12582SOL    HW139166   3.978   3.283   0.102  0.2073  0.2217  0.3354
12582SOL    HW239167   3.871   3.358   0.025 -0.7346  1.5742  2.8349
12583SOL     OW39168   5.757   7.897   1.485 -0.2516 -0.0998 -0.1543
12583SOL    HW139169   5.733   7.915   1.394  1.2355 -1.9126 -0.9738
12583SOL    HW239170   5.705   7.820   1.508 -0.6548  0.3790  0.5634
12584SOL     OW39171   5.294   0.602   3.102  0.0042 -0.2183 -0.1903
12584SOL    HW139172   5.277   0.562   3.017  2.0459 -2.0701  0.1821
12584SOL    HW239173   5.243   0.550   3.164 -2.1891  1.6710 -0.2750
12585SOL     OW39174   1.732   1.455   0.574  0.4535  0.0272 -0.5488
12585SOL    HW139175   1.780   1.462   0.492  0.4714 -0.4715 -0.5890
12585SOL    HW239176   1.762   1.529   0.626  0.0882  0.6131 -1.1705
12586SOL     OW39177   6.796   2.156   2.368 -0.2024 -0.8643  0.1983
12586SOL    HW139178   6.790   2.218   2.440  0.0988 -1.1871  0.5057
12586SOL    HW239179   6.889   2.156   2.344 -0.7672  2.1235 -2.7707
12587SOL     OW39180   1.829   3.108   6.120  0.5155  0.1314  0.1989
12587SOL    HW139181   1.788   3.195   6.121 -0.6853 -0.4106  0.2166
12587SOL    HW239182   1.871   3.102   6.034  1.4237  1.0753  0.5521
12588SOL     OW39183   0.841   6.186   3.403  0.2811  0.0829 -0.3625
12588SOL    HW139184   0.865   6.094   3.398  0.9918  0.2974 -0.9732
12588SOL    HW239185   0.856   6.220   3.315  1.1520  1.0591  0.1498
12589SOL     OW39186   7.084   0.508   4.873 -0.1979 -0.0824  0.4729
12589SOL    HW139187   7.029   0.431   4.861 -0.5002  0.3909 -1.4051
12589SOL    HW239188   7.024   0.582   4.864  0.1316  0.4120  2.0193
12590SOL     OW39189   1.498   1.771   1.760  0.0743  0.1096 -0.1971
12590SOL    HW139190   1.527   1.697   1.707  1.0896  0.7393 -0.5587
12590SOL    HW239191   1.403   1.762   1.764  0.2325 -1.6371  0.4318
12591SOL     OW39192   5.885   3.074   0.873 -0.0004  0.3693  0.2266
12591SOL    HW139193   5.890   3.022   0.954 -3.2042  0.4207  0.5747
12591SOL    HW239194   5.800   3.118   0.878  0.9120  2.5952 -1.9171
12592SOL     OW39195   3.357   0.246   5.282 -0.6186  0.0251  0.2837
12592SOL    HW139196   3.410   0.231   5.361  0.8606 -0.6194 -0.7864
12592SOL    HW239197   3.391   0.327   5.245 -0.9477  0.0443  0.0206
12593SOL     OW39198   5.346   3.230   0.988  0.6060 -0.1585 -0.5566
12593SOL    HW139199   5.312   3.157   1.039 -1.6016  1.9262  1.2090
12593SOL    HW239200   5.420   3.262   1.038  1.0421 -0.6378 -0.8861
12594SOL     OW39201   1.518   7.987   1.793 -0.1755  0.2697 -0.6517
12594SOL    HW139202   1.424   7.993   1.814 -0.4217 -1.0370 -1.2458
12594SOL    HW239203   1.562   8.015   1.873 -1.0570  1.6506 -0.6187
12595SOL     OW39204   2.168   1.518   2.750  0.0616  0.0825 -1.0145
12595SOL    HW139205   2.102   1.480   2.808  1.1491  0.2710  0.3960
12595SOL    HW239206   2.196   1.446   2.695 -0.0865 -0.4182 -0.4430
12596SOL     OW39207   4.651   6.336   5.460  0.1379 -0.2725  0.0771
12596SOL    HW139208   4.732   6.357   5.506 -0.1911 -0.2417  0.6575
12596SOL    HW239209   4.604   6.420   5.455 -0.3554 -0.4926  0.7593
12597SOL     OW39210   3.030   6.244   4.472  0.6643 -0.1091 -0.5417
12597SOL    HW139211   3.071   6.187   4.407  1.8363 -1.4128  1.2606
12597SOL    HW239212   2.993   6.316   4.421 -0.1269 -2.0243 -2.8359
12598SOL     OW39213   1.025   3.452   5.836  0.5662  0.6308 -0.1479
12598SOL    HW139214   0.969   3.397   5.891 -0.1472  1.7416  0.2791
12598SOL    HW239215   1.082   3.498   5.898  1.1037  0.4435 -0.4920
12599SOL     OW39216   2.499   0.440   0.179  0.0187 -0.2276 -0.1135
12599SOL    HW139217   2.528   0.389   0.255  0.2591  1.4206  0.9652
12599SOL    HW239218   2.580   0.477   0.144 -0.1231 -0.7709 -1.0237
12600SOL     OW39219   6.351   8.042   1.962 -0.1248 -0.4666  0.2018
12600SOL    HW139220   6.326   8.135   1.958 -0.2402 -0.4023  1.8481
12600SOL    HW239221   6.270   7.995   1.947 -0.7525 -0.2609  2.6059
12601SOL     OW39222   1.643   0.474   2.332  0.1513 -0.0110 -0.3071
12601SOL    HW139223   1.701   0.520   2.271 -0.1211 -1.1486 -1.4665
12601SOL    HW239224   1.614   0.542   2.393  1.3129  0.9322 -0.7615
12602SOL     OW39225   4.518   7.761   2.983  0.5932 -0.2096  0.0049
12602SOL    HW139226   4.436   7.733   2.942 -1.0458  0.1156  2.8037
12602SOL    HW239227   4.558   7.680   3.015 -0.1278 -0.1290  1.1506
12603SOL     OW39228   7.042   4.179   1.991  0.2444 -0.4188  0.1660
12603SOL    HW139229   7.095   4.217   2.061 -1.1295  1.3205  0.3467
12603SOL    HW239230   7.092   4.103   1.961  3.6377  1.9726 -0.7821
12604SOL     OW39231   1.929   2.878   6.527  0.0791  0.0952 -0.1285
12604SOL    HW139232   1.959   2.875   6.436 -0.1110  2.0331 -0.2837
12604SOL    HW239233   1.835   2.897   6.520  0.1779  0.8342  0.4715
12605SOL     OW39234   5.637   2.563   1.794  0.2147 -0.0459 -0.0053
12605SOL    HW139235   5.641   2.482   1.845  0.3880 -0.7842 -1.1612
12605SOL    HW239236   5.612   2.630   1.858 -1.1493 -1.2107  0.7480
12606SOL     OW39237   4.614   7.109   5.554 -0.9090  0.3218 -0.1212
12606SOL    HW139238   4.625   7.078   5.644 -0.2716 -1.4600 -0.7692
12606SOL    HW239239   4.556   7.184   5.562 -0.0539  0.8491  1.8830
12607SOL     OW39240   5.795   2.430   6.384  0.0923  0.0613  0.3186
12607SOL    HW139241   5.719   2.449   6.440  0.6183  0.2367  0.9830
12607SOL    HW239242   5.848   2.369   6.434  0.5565  0.1936 -0.0039
12608SOL     OW39243   0.230   4.272   3.764 -0.4330 -0.1296  0.4863
12608SOL    HW139244   0.213   4.186   3.727 -0.9797 -0.3878  1.2935
12608SOL    HW239245   0.221   4.259   3.859  1.2637  0.4190  0.7549
12609SOL     OW39246   3.278   3.336   6.729  0.1210 -0.3325  0.1611
12609SOL    HW139247   3.286   3.246   6.761 -1.2569 -0.4923  0.1234
12609SOL    HW239248   3.356   3.350   6.676  0.7103 -1.2584  0.7576
12610SOL     OW39249   8.054   3.112   0.368  0.6234 -0.3171 -0.2947
12610SOL    HW139250   8.033   3.135   0.459  2.1717 -0.1320  0.0367
12610SOL    HW239251   8.121   3.044   0.376  3.0438  1.8000 -1.2332
12611SOL     OW39252   4.850   0.649   4.654  0.2135 -0.7055  0.2312
12611SOL    HW139253   4.809   0.586   4.713 -0.0245 -0.8138 -0.0494
12611SOL    HW239254   4.892   0.713   4.712 -2.9258  1.1690  0.6453
12612SOL     OW39255   2.668   3.834   4.621  0.4816  0.3605  0.5441
12612SOL    HW139256   2.607   3.766   4.593  0.2382  1.1541 -0.9379
12612SOL    HW239257   2.754   3.802   4.593  0.3695  0.6285 -0.1305
12613SOL     OW39258   8.048   4.193   5.761  0.0459  0.2538 -0.3472
12613SOL    HW139259   8.007   4.121   5.809 -0.4745  0.8389  0.1094
12613SOL    HW239260   7.996   4.270   5.784  1.7829  1.1624  0.7925
12614SOL     OW39261   3.153   7.898   5.541 -0.1687  0.1192  0.6235
12614SOL    HW139262   3.226   7.896   5.603  0.3250  0.8601  0.0843
12614SOL    HW239263   3.180   7.961   5.474 -2.0076  1.6939  1.2671
12615SOL     OW39264   4.491   6.486   7.216  0.4959 -0.2561 -0.1417
12615SOL    HW139265   4.476   6.557   7.153  0.7415  0.5742  0.7077
12615SOL    HW239266   4.436   6.414   7.185  0.8184  0.0403 -1.4397
12616SOL     OW39267   2.460   7.069   2.312 -0.4455 -0.0997 -0.2010
12616SOL    HW139268   2.487   7.158   2.332  0.1596 -0.5174  0.9333
12616SOL    HW239269   2.532   7.014   2.342 -1.8522 -1.1425  1.4600
12617SOL     OW39270   7.437   4.396   7.954  0.1556 -0.0541 -0.4769
12617SOL    HW139271   7.401   4.470   8.002  2.8077  0.2568  1.2406
12617SOL    HW239272   7.384   4.391   7.875 -2.1051  1.6841  0.7982
12618SOL     OW39273   0.630   1.532   3.838 -0.0852 -0.3367 -0.1248
12618SOL    HW139274   0.691   1.603   3.822  0.2948 -0.4275  0.8413
12618SOL    HW239275   0.558   1.572   3.887 -0.2468 -0.4641 -0.2551
12619SOL     OW39276   2.728   0.493   0.821  0.3152 -0.0859 -0.1172
12619SOL    HW139277   2.694   0.452   0.742 -2.0066 -0.3642  0.9484
12619SOL    HW239278   2.718   0.587   0.806 -0.9308 -0.1644  0.1573
12620SOL     OW39279   1.138   3.668   0.395 -0.1496 -0.3389 -0.3808
12620SOL    HW139280   1.174   3.724   0.464 -1.1861  0.7608 -0.6987
12620SOL    HW239281   1.094   3.729   0.336 -1.1600 -1.4861 -0.8437
12621SOL     OW39282   0.585   7.675   3.704 -0.1230 -0.2172 -0.0595
12621SOL    HW139283   0.556   7.721   3.625 -0.3684  0.4248  0.3968
12621SOL    HW239284   0.504   7.646   3.745  0.0117 -0.6669 -0.1050
12622SOL     OW39285   7.692   7.890   4.819 -1.1146 -0.2872 -0.1379
12622SOL    HW139286   7.628   7.936   4.766 -0.3257  0.2785 -0.6265
12622SOL    HW239287   7.771   7.886   4.764 -0.1224  0.7273  1.1332
12623SOL     OW39288   8.023   5.992   5.969  0.1450  0.1188 -0.4676
12623SOL    HW139289   8.016   5.933   6.044  1.0651  0.8401  0.2025
12623SOL    HW239290   7.933   6.023   5.954 -0.1462 -0.5272 -0.0795
12624SOL     OW39291   0.528   4.344   1.878  0.7874 -0.4446  0.6591
12624SOL    HW139292   0.575   4.391   1.809  2.3244  0.4101  2.2311
12624SOL    HW239293   0.444   4.321   1.837  0.3876  2.6439 -0.5999
12625SOL     OW39294   8.036   0.754   1.211  0.3519  0.3371  0.0476
12625SOL    HW139295   8.039   0.658   1.212 -2.5137  0.1378 -0.3777
12625SOL    HW239296   7.975   0.775   1.139  0.0073  2.4117  0.8712
12626SOL     OW39297   2.080   5.016   4.569 -0.2483  0.4344  0.2195
12626SOL    HW139298   2.096   5.102   4.607 -0.6987  1.3639 -1.5526
12626SOL    HW239299   1.995   4.989   4.603  0.4917  0.0589  1.8269
12627SOL     OW39300   3.156   8.017   7.767  0.1455 -0.3902  0.2580
12627SOL    HW139301   3.084   8.000   7.705 -0.4814  1.1441  0.5100
12627SOL    HW239302   3.234   7.983   7.723 -0.3299  0.3752 -1.2666
12628SOL     OW39303   0.714   0.878   5.769  0.4596 -0.5498 -0.0582
12628SOL    HW139304   0.718   0.968   5.800  1.1971 -0.3078 -0.8389
12628SOL    HW239305   0.682   0.884   5.679  1.4257 -0.9808 -0.4425
12629SOL     OW39306   4.264   2.444   5.288  0.2312 -0.0539  0.1353
12629SOL    HW139307   4.239   2.364   5.241  1.2998 -0.8559  0.8844
12629SOL    HW239308   4.223   2.515   5.238 -0.6924 -1.0580 -0.5776
12630SOL     OW39309   6.756   7.966   2.413  0.1149  0.1532 -0.1408
12630SOL    HW139310   6.793   8.054   2.411 -0.5994  0.4571 -0.2069
12630SOL    HW239311   6.667   7.977   2.448  0.2986 -0.6436  0.6454
12631SOL     OW39312   3.016   6.807   3.643  0.1721  0.3423 -0.3249
12631SOL    HW139313   2.955   6.879   3.627  1.5934  2.0531  1.4201
12631SOL    HW239314   3.103   6.843   3.624  0.9322 -0.8970  0.5467
12632SOL     OW39315   3.650   1.544   1.684  1.1161 -0.0028  0.1088
12632SOL    HW139316   3.595   1.484   1.633  2.1940 -0.6829 -0.3095
12632SOL    HW239317   3.618   1.631   1.661  0.5684 -0.3643 -0.5449
12633SOL     OW39318   7.679   3.314   4.887  0.2660 -0.5232  0.0793
12633SOL    HW139319   7.769   3.347   4.884 -0.3405  1.4720  1.5041
12633SOL    HW239320   7.675   3.263   4.968 -0.0060 -0.0812  0.3543
12634SOL     OW39321   2.919   5.192   4.601  0.0873 -1.1899 -0.1377
12634SOL    HW139322   2.824   5.203   4.598 -0.0764 -1.0914  2.8166
12634SOL    HW239323   2.934   5.129   4.671  2.2229 -1.2729 -0.6108
12635SOL     OW39324   4.357   0.828   0.574  0.2560  0.1512  0.3800
12635SOL    HW139325   4.368   0.733   0.574  0.8325  0.2114 -0.1660
12635SOL    HW239326   4.444   0.862   0.597 -0.1732  0.5348  1.5489
12636SOL     OW39327   4.748   0.552   6.695 -0.0744  0.0577 -0.4490
12636SOL    HW139328   4.705   0.636   6.707 -0.2324  0.0835 -1.1680
12636SOL    HW239329   4.764   0.520   6.784 -0.3392  0.6758 -0.1761
12637SOL     OW39330   6.604   1.536   4.034 -0.0318  0.3419  0.0410
12637SOL    HW139331   6.515   1.530   4.069 -0.6270 -0.9921 -1.5763
12637SOL    HW239332   6.591   1.542   3.939  1.6359 -0.7979 -0.2803
12638SOL     OW39333   1.841   3.765   6.930  0.1936 -0.4662  0.0195
12638SOL    HW139334   1.866   3.854   6.903  0.0807 -0.0352  1.2315
12638SOL    HW239335   1.766   3.744   6.875 -0.3750  0.5882  0.3557
12639SOL     OW39336   2.407   2.840   1.613  0.5973  0.0852 -0.7764
12639SOL    HW139337   2.386   2.918   1.663  2.0205  0.2499 -0.3840
12639SOL    HW239338   2.345   2.774   1.643  0.0405  0.7797 -0.3743
12640SOL     OW39339   5.545   5.953   4.227 -0.5325 -0.2964 -0.1030
12640SOL    HW139340   5.610   5.883   4.231 -0.8894 -0.7119 -1.2730
12640SOL    HW239341   5.473   5.922   4.282 -0.8140 -1.0054 -0.8485
12641SOL     OW39342   6.062   4.152   3.271 -0.4715 -0.1748 -0.1646
12641SOL    HW139343   6.104   4.101   3.201  0.0276 -0.6628  0.4780
12641SOL    HW239344   5.969   4.131   3.264 -0.4476 -0.1018 -0.7733
12642SOL     OW39345   0.402   3.002   2.937 -0.0804 -0.3716 -0.0904
12642SOL    HW139346   0.346   3.001   3.014  0.9036  2.7206  0.8005
12642SOL    HW239347   0.487   2.972   2.969 -0.1407 -0.9576 -0.4594
12643SOL     OW39348   7.510   1.562   0.600 -0.0068 -0.1489 -0.1231
12643SOL    HW139349   7.522   1.470   0.580 -1.3144 -0.1509 -1.0510
12643SOL    HW239350   7.417   1.569   0.624  0.0098  0.9605 -0.3339
12644SOL     OW39351   5.423   0.805   4.062 -0.3565 -0.4342 -0.0405
12644SOL    HW139352   5.435   0.876   3.999  1.1145  0.3747  1.0987
12644SOL    HW239353   5.389   0.732   4.009 -2.2593  1.1636 -1.1850
12645SOL     OW39354   6.684   5.801   4.890 -0.2824 -0.1652  0.1046
12645SOL    HW139355   6.706   5.709   4.905 -0.6418 -0.7119 -2.3584
12645SOL    HW239356   6.716   5.820   4.802 -1.0401  1.8064  0.2021
12646SOL     OW39357   6.324   5.278   4.344 -0.2399 -0.5417  0.0975
12646SOL    HW139358   6.250   5.310   4.294  0.3373  0.5383 -0.0943
12646SOL    HW239359   6.299   5.190   4.371 -0.9975 -0.7381 -1.1748
12647SOL     OW39360   5.723   3.692   1.344 -0.2614  0.1798 -0.3597
12647SOL    HW139361   5.670   3.726   1.271  1.0824  1.4514 -0.7821
12647SOL    HW239362   5.791   3.640   1.301 -1.2706 -1.6986  0.1984
12648SOL     OW39363   3.076   6.078   5.847 -0.1180 -0.1185 -0.0102
12648SOL    HW139364   3.134   6.003   5.854 -0.8349 -0.6171  0.7695
12648SOL    HW239365   3.126   6.150   5.885 -0.0013 -0.5460  0.6660
12649SOL     OW39366   5.622   5.213   2.707  0.1314 -0.2651  0.0842
12649SOL    HW139367   5.593   5.126   2.679  0.1830 -0.5115  0.7943
12649SOL    HW239368   5.703   5.197   2.755  0.4894  0.2438 -0.3264
12650SOL     OW39369   6.834   5.809   5.193  0.1283 -0.0297  0.2214
12650SOL    HW139370   6.882   5.735   5.154 -0.1117 -0.0413 -0.0503
12650SOL    HW239371   6.884   5.886   5.167  2.2003 -0.2462  3.0483
12651SOL     OW39372   7.635   1.039   5.228 -0.5618 -0.3167  0.5658
12651SOL    HW139373   7.614   1.029   5.320  0.9626 -0.5542  0.9180
12651SOL    HW239374   7.725   1.072   5.227 -0.3767 -0.7709 -0.8346
12652SOL     OW39375   2.882   5.522   0.344 -0.4171 -0.2337 -0.2996
12652SOL    HW139376   2.969   5.529   0.384 -0.9578  0.3165  0.8029
12652SOL    HW239377   2.825   5.490   0.414 -1.0243 -1.0426 -1.1392
12653SOL     OW39378   3.999   6.267   3.337 -0.3845  0.6439 -0.3042
12653SOL    HW139379   3.937   6.243   3.407  0.4902  0.1095  0.3064
12653SOL    HW239380   4.084   6.240   3.371  0.4878  3.2243 -0.2441
12654SOL     OW39381   4.180   3.890   0.580  0.2947 -0.1164 -0.5079
12654SOL    HW139382   4.123   3.920   0.509 -0.8452  0.9820  0.8050
12654SOL    HW239383   4.128   3.903   0.659  1.8720 -0.4241  0.6240
12655SOL     OW39384   1.719   4.019   1.495  0.4580 -0.0196  0.3655
12655SOL    HW139385   1.664   4.003   1.419  0.7325 -0.3784  0.2372
12655SOL    HW239386   1.786   3.950   1.490  0.8681  0.3646  0.5569
12656SOL     OW39387   0.062   3.987   5.141  0.1049 -0.0967 -0.4758
12656SOL    HW139388   0.102   3.980   5.054 -2.8826 -1.8388 -1.8716
12656SOL    HW239389   0.029   4.076   5.145  0.3848  0.0396 -1.0667
12657SOL     OW39390   2.829   7.097   4.140  0.3762  0.4869 -0.4022
12657SOL    HW139391   2.783   7.181   4.135 -1.7620 -0.6078  0.1015
12657SOL    HW239392   2.825   7.062   4.051 -0.8688 -0.1529 -0.1064
12658SOL     OW39393   0.241   6.494   0.689 -0.1790  0.4097  0.1200
12658SOL    HW139394   0.223   6.487   0.782 -0.2940 -0.3928  0.0471
12658SOL    HW239395   0.177   6.558   0.656 -1.7168 -1.0148  0.1894
12659SOL     OW39396   6.660   2.021   1.224  0.1797 -0.3098 -0.3210
12659SOL    HW139397   6.640   1.961   1.296  2.4084 -0.0380  0.5890
12659SOL    HW239398   6.708   2.092   1.264  1.7111 -0.2586 -2.0941
12660SOL     OW39399   1.894   3.680   5.265  0.2290  0.8151  0.0060
12660SOL    HW139400   1.816   3.655   5.216  0.9046  0.5950 -0.9754
12660SOL    HW239401   1.861   3.731   5.339 -0.7476  1.9148 -1.1572
12661SOL     OW39402   7.656   1.653   3.922 -0.0968  0.2263  0.0072
12661SOL    HW139403   7.724   1.658   3.989  0.3787  0.1754 -0.4576
12661SOL    HW239404   7.580   1.694   3.962  0.3170  0.6244  0.4081
12662SOL     OW39405   2.223   3.002   7.734  0.6974 -0.1474  0.3203
12662SOL    HW139406   2.209   2.928   7.793  0.2022  1.3326  2.1639
12662SOL    HW239407   2.311   2.988   7.698  1.3129 -0.7416  1.9748
12663SOL     OW39408   6.282   6.131   6.012  0.0914 -0.1095 -0.4396
12663SOL    HW139409   6.256   6.081   5.935 -2.2121 -1.0653  0.8537
12663SOL    HW239410   6.327   6.068   6.068  0.0655  0.0985 -0.1842
12664SOL     OW39411   0.197   3.496   5.801 -0.1892  0.0748  0.3068
12664SOL    HW139412   0.177   3.449   5.720 -1.8399  1.1317  0.0486
12664SOL    HW239413   0.265   3.558   5.777 -0.0589 -0.2053 -0.0569
12665SOL     OW39414   5.083   1.049   3.616 -0.0592 -0.2191  0.5305
12665SOL    HW139415   5.084   1.052   3.712  1.2280 -0.5339  0.5516
12665SOL    HW239416   5.067   0.957   3.596 -2.6058  0.1895  0.3806
12666SOL     OW39417   4.251   7.383   5.264 -0.4295 -0.0478  0.1117
12666SOL    HW139418   4.217   7.472   5.273 -1.2167 -0.2054 -1.1000
12666SOL    HW239419   4.341   7.389   5.296 -0.1469  1.4129 -0.8363
12667SOL     OW39420   5.455   2.813   2.242  0.3202  0.0944 -0.3432
12667SOL    HW139421   5.468   2.797   2.335  0.1255  0.7990 -0.1964
12667SOL    HW239422   5.444   2.907   2.234 -2.4955 -0.1789 -0.7105
12668SOL     OW39423   0.831   1.416   6.217  0.3043 -0.2754 -0.1367
12668SOL    HW139424   0.816   1.434   6.309  0.4436 -0.1208 -0.1441
12668SOL    HW239425   0.926   1.412   6.208  0.3613  1.1994 -0.5413
12669SOL     OW39426   4.145   4.929   1.335 -0.4210  0.0056 -0.0231
12669SOL    HW139427   4.084   4.993   1.372 -1.3973  0.0531 -1.6018
12669SOL    HW239428   4.187   4.889   1.411 -1.9897  0.4179  1.1199
12670SOL     OW39429   1.307   3.689   0.640 -0.0410  0.0689 -0.9161
12670SOL    HW139430   1.339   3.735   0.717 -0.4240  2.7965 -2.2641
12670SOL    HW239431   1.370   3.709   0.571 -0.0235 -1.8086 -1.5012
12671SOL     OW39432   7.287   2.178   5.269 -0.0448 -0.3702  0.4783
12671SOL    HW139433   7.369   2.225   5.285 -0.3390 -0.0263  1.0450
12671SOL    HW239434   7.310   2.108   5.209  0.5423  0.0927  0.1556
12672SOL     OW39435   7.418   6.555   4.891 -0.0309  0.3092 -0.2598
12672SOL    HW139436   7.352   6.496   4.854 -0.1373  0.2862 -0.0317
12672SOL    HW239437   7.482   6.568   4.820 -0.0333 -0.0412 -0.3240
12673SOL     OW39438   0.219   3.705   1.628  0.4639 -0.0947 -0.2405
12673SOL    HW139439   0.223   3.751   1.544  0.2171 -0.0565 -0.2348
12673SOL    HW239440   0.309   3.684   1.649  0.5993  0.5507 -0.1553
12674SOL     OW39441   5.146   3.370   7.915 -0.5442 -0.6877  0.0587
12674SOL    HW139442   5.215   3.327   7.966 -0.7107  0.4139  1.2833
12674SOL    HW239443   5.146   3.460   7.947 -0.6118  0.0782 -1.9990
12675SOL     OW39444   3.142   2.725   3.276  0.1525  0.5627 -0.7572
12675SOL    HW139445   3.102   2.664   3.339  1.6004  0.0283 -0.3129
12675SOL    HW239446   3.112   2.694   3.191  1.0721 -0.9762 -0.5591
12676SOL     OW39447   5.725   3.467   7.361  0.0830  0.8232 -0.1877
12676SOL    HW139448   5.795   3.490   7.422  0.9711 -3.3286  0.6304
12676SOL    HW239449   5.644   3.494   7.405  0.9024  1.4552  0.9799
12677SOL     OW39450   1.805   6.229   4.868  0.7302 -0.3990 -0.0677
12677SOL    HW139451   1.861   6.273   4.932  2.4849 -2.2793 -0.2427
12677SOL    HW239452   1.860   6.216   4.791 -0.6792 -0.1955 -1.1664
12678SOL     OW39453   7.741   6.038   5.931 -0.4736  0.1577  0.4122
12678SOL    HW139454   7.709   6.031   6.021  1.4703 -1.3541  1.0436
12678SOL    HW239455   7.669   6.003   5.878 -0.9833 -0.5666  1.5280
12679SOL     OW39456   5.064   3.855   7.001 -0.8848 -0.3745 -0.1120
12679SOL    HW139457   5.049   3.830   6.910  0.0004  0.1102 -0.3942
12679SOL    HW239458   5.037   3.946   7.006 -1.8196 -0.6667  0.3431
12680SOL     OW39459   6.267   3.086   4.699 -0.4262  0.5792  0.6956
12680SOL    HW139460   6.284   3.047   4.784 -1.2141  2.0646  1.5812
12680SOL    HW239461   6.321   3.165   4.697 -0.8645  0.8746  0.0820
12681SOL     OW39462   2.497   6.865   1.724 -0.3384  0.0038  0.6620
12681SOL    HW139463   2.463   6.776   1.716 -0.9104  0.1928  0.9573
12681SOL    HW239464   2.446   6.916   1.662  0.5839 -0.0279 -0.1457
12682SOL     OW39465   1.050   5.125   7.619  0.2951  0.2283 -0.3820
12682SOL    HW139466   0.979   5.172   7.662  0.7663 -0.5890  1.3629
12682SOL    HW239467   1.014   5.100   7.534 -0.5526  2.1562 -0.6342
12683SOL     OW39468   5.131   1.624   8.048  0.4164  0.3275 -0.0508
12683SOL    HW139469   5.131   1.633   8.143 -1.2001  1.4308 -0.1216
12683SOL    HW239470   5.140   1.713   8.015  1.0863 -0.0532 -0.9456
12684SOL     OW39471   5.658   7.905   7.557 -0.0929  0.4788 -0.6058
12684SOL    HW139472   5.666   7.936   7.647  2.0425 -0.1031 -0.5409
12684SOL    HW239473   5.669   7.810   7.563 -3.2631 -0.0400 -1.1650
12685SOL     OW39474   1.554   5.835   5.957 -0.0113 -0.1668 -0.0386
12685SOL    HW139475   1.518   5.830   6.045 -1.3641  0.9271 -0.5000
12685SOL    HW239476   1.501   5.901   5.912  2.4115  1.4119 -0.8212
12686SOL     OW39477   6.036   5.518   1.039 -0.2032 -0.1939  0.1334
12686SOL    HW139478   6.064   5.594   0.988  0.0085 -1.1542 -1.2344
12686SOL    HW239479   5.949   5.497   1.004 -0.9412  0.3239  1.5707
12687SOL     OW39480   2.012   2.757   5.416 -0.3216  0.0447  0.3836
12687SOL    HW139481   2.052   2.843   5.414  1.0296 -0.5622 -0.6398
12687SOL    HW239482   2.075   2.700   5.372 -2.3741 -0.9617 -1.4478
12688SOL     OW39483   2.353   5.338   4.180 -0.3610 -0.3760 -0.2013
12688SOL    HW139484   2.397   5.422   4.167 -2.5775  1.1925  1.6240
12688SOL    HW239485   2.401   5.297   4.252 -0.1546  0.0045 -0.1191
12689SOL     OW39486   3.799   4.826   6.623 -0.1971 -0.3907  0.1051
12689SOL    HW139487   3.728   4.890   6.627 -0.8571 -1.1273  0.4608
12689SOL    HW239488   3.878   4.879   6.611 -0.9349  0.3598 -1.9525
12690SOL     OW39489   6.917   4.223   7.031  0.0843  0.1455  0.0568
12690SOL    HW139490   6.914   4.127   7.037  0.0031  0.1339 -0.1380
12690SOL    HW239491   6.933   4.253   7.120  0.1702 -0.0528  0.1085
12691SOL     OW39492   3.801   1.979   0.298  0.3961  0.2222  0.0452
12691SOL    HW139493   3.797   2.020   0.384 -0.4284 -0.3877  0.3049
12691SOL    HW239494   3.716   1.936   0.287  0.0687  1.1531 -1.5002
12692SOL     OW39495   1.202   4.477   7.207 -0.2446  0.2675  0.7538
12692SOL    HW139496   1.219   4.549   7.147  1.2771 -0.1595  0.6386
12692SOL    HW239497   1.124   4.434   7.171  1.6921 -1.1371 -2.0877
12693SOL     OW39498   6.594   3.761   4.797  0.2438 -0.1277  0.1100
12693SOL    HW139499   6.599   3.723   4.709  0.3186 -1.4111  0.6548
12693SOL    HW239500   6.529   3.708   4.843  1.8504 -0.9711  1.5351
12694SOL     OW39501   8.036   6.401   1.532  0.4498  0.2341  0.2981
12694SOL    HW139502   8.052   6.426   1.623 -1.2042  0.8787  0.4543
12694SOL    HW239503   8.028   6.484   1.485  1.4223 -0.0964 -0.4740
12695SOL     OW39504   1.634   0.422   0.358 -0.1165 -0.6706  0.3916
12695SOL    HW139505   1.724   0.424   0.390 -0.6332  0.6259  1.8952
12695SOL    HW239506   1.640   0.446   0.266  0.9964  0.3406  0.7079
12696SOL     OW39507   3.425   7.154   5.997  0.0940  0.5910  0.3812
12696SOL    HW139508   3.446   7.195   6.081 -1.6452  0.0392  1.1448
12696SOL    HW239509   3.332   7.175   5.983 -0.1294 -0.8493 -0.4819
12697SOL     OW39510   4.509   2.363   4.436 -0.0807 -0.3915  0.0005
12697SOL    HW139511   4.480   2.454   4.443  1.8882  0.3821 -1.0066
12697SOL    HW239512   4.429   2.313   4.422 -1.1386  1.2804 -0.1913
12698SOL     OW39513   3.088   5.999   7.568  0.1951  0.4314 -0.3208
12698SOL    HW139514   3.106   5.905   7.562 -0.2281  0.3404 -0.1889
12698SOL    HW239515   3.099   6.020   7.661 -1.1141  0.2167 -0.0987
12699SOL     OW39516   2.283   7.699   2.295 -0.2557 -0.0914  0.4661
12699SOL    HW139517   2.301   7.702   2.389 -0.7001  1.9867  0.5297
12699SOL    HW239518   2.194   7.663   2.289 -0.7467  0.9799  0.9577
12700SOL     OW39519   3.119   0.434   0.761  0.1652  0.0671  0.2964
12700SOL    HW139520   3.085   0.385   0.836 -1.5921 -0.4179 -0.7608
12700SOL    HW239521   3.132   0.368   0.693 -1.3582  0.9015 -0.8608
12701SOL     OW39522   3.347   3.246   1.972  0.0491  0.0584 -0.2474
12701SOL    HW139523   3.392   3.260   2.055 -1.0799  1.0642  0.2276
12701SOL    HW239524   3.351   3.151   1.958  0.1014 -0.1482  1.0454
12702SOL     OW39525   2.381   2.001   0.738  0.0509 -0.1208 -0.5437
12702SOL    HW139526   2.466   2.020   0.777  0.0033  1.3009 -1.0941
12702SOL    HW239527   2.318   2.026   0.806 -0.0212  2.0763 -1.3546
12703SOL     OW39528   6.672   7.815   5.908 -0.0632  0.0436 -0.4091
12703SOL    HW139529   6.581   7.825   5.880  0.3662 -0.2211 -2.0445
12703SOL    HW239530   6.674   7.731   5.953 -0.4463 -0.4722 -1.3153
12704SOL     OW39531   7.728   5.905   4.133 -0.6921  0.4851  0.1050
12704SOL    HW139532   7.732   5.982   4.189  1.2950  0.5473 -0.0376
12704SOL    HW239533   7.807   5.855   4.155 -1.4023 -0.9935 -0.5330
12705SOL     OW39534   2.366   6.446   0.189 -0.3746 -0.2302 -0.4136
12705SOL    HW139535   2.439   6.393   0.221  1.1106  0.6271 -2.2460
12705SOL    HW239536   2.364   6.522   0.247  0.4131 -0.0922 -0.5652
12706SOL     OW39537   7.395   1.549   6.061 -0.4747  0.3627  0.4902
12706SOL    HW139538   7.348   1.533   6.143  0.5190  2.8283  1.6376
12706SOL    HW239539   7.326   1.558   5.996 -1.2716 -2.3806  0.8031
12707SOL     OW39540   3.541   1.404   3.347 -0.5460  0.0083  0.5191
12707SOL    HW139541   3.451   1.378   3.366 -1.5892  1.2461 -2.1662
12707SOL    HW239542   3.560   1.475   3.408 -1.2540 -0.4694  1.3042
12708SOL     OW39543   7.167   5.616   5.989  0.2633 -0.0002 -0.3488
12708SOL    HW139544   7.111   5.640   5.915  1.4815  0.7208 -1.0662
12708SOL    HW239545   7.193   5.700   6.027 -0.8682 -0.3542  1.3527
12709SOL     OW39546   7.283   3.015   0.244 -0.4502  0.0833 -0.2462
12709SOL    HW139547   7.293   2.966   0.162  1.2690  2.5078 -1.6085
12709SOL    HW239548   7.295   2.949   0.312 -0.5682 -1.7890 -1.9359
12710SOL     OW39549   1.109   6.881   2.763  0.6131 -0.0094  0.4589
12710SOL    HW139550   1.154   6.966   2.761  1.2038 -0.2407 -3.2483
12710SOL    HW239551   1.174   6.819   2.732 -1.3427 -0.7887 -2.4958
12711SOL     OW39552   4.780   3.447   2.650 -0.6792  0.1381 -0.1345
12711SOL    HW139553   4.726   3.477   2.576 -0.1939 -0.0193 -0.5567
12711SOL    HW239554   4.829   3.373   2.615 -0.2498  0.2292  0.2676
12712SOL     OW39555   3.364   4.996   0.423  0.1251  0.4703 -0.1332
12712SOL    HW139556   3.450   4.973   0.388 -0.1439 -0.4760 -0.2078
12712SOL    HW239557   3.321   5.044   0.352  0.0227 -0.4114 -0.6821
12713SOL     OW39558   3.180   7.081   5.479 -0.1116  0.0300 -0.9279
12713SOL    HW139559   3.200   7.132   5.401 -2.6010  1.0103 -1.0029
12713SOL    HW239560   3.119   7.014   5.449  0.2651 -0.6735 -0.1433
12714SOL     OW39561   2.653   6.528   0.209 -0.2135 -0.0996 -0.4945
12714SOL    HW139562   2.606   6.605   0.240  0.5071 -0.0600  0.5462
12714SOL    HW239563   2.656   6.539   0.114 -2.4643 -0.2280 -0.6346
12715SOL     OW39564   3.982   7.562   6.901 -0.4031  0.2558 -0.2339
12715SOL    HW139565   4.005   7.633   6.962 -1.1210 -0.6053  1.0700
12715SOL    HW239566   3.904   7.594   6.856 -2.1085 -0.5702  1.9862
12716SOL     OW39567   7.747   0.215   6.397  0.0322  0.5141 -0.3557
12716SOL    HW139568   7.832   0.174   6.379 -0.0795 -0.1346  0.5514
12716SOL    HW239569   7.732   0.200   6.490 -0.7952  1.1696 -0.3703
12717SOL     OW39570   7.960   3.623   1.963 -0.0012  0.0055 -0.0482
12717SOL    HW139571   8.021   3.633   2.036 -0.1766 -0.9748  0.2456
12717SOL    HW239572   7.882   3.670   1.991  0.6352  1.3621 -0.4714
12718SOL     OW39573   7.809   5.855   1.424  0.3680  0.1147 -0.3664
12718SOL    HW139574   7.885   5.816   1.468 -0.7817 -0.9170  0.8108
12718SOL    HW239575   7.828   5.949   1.423  2.3624 -0.2295 -1.5698
12719SOL     OW39576   2.851   2.391   1.036 -0.0474  0.0284  0.4082
12719SOL    HW139577   2.915   2.414   0.969  0.5481 -0.3764  0.8264
12719SOL    HW239578   2.823   2.474   1.072  1.5761  0.1672  1.4482
12720SOL     OW39579   1.505   3.201   1.825  0.0257  0.2019 -0.8382
12720SOL    HW139580   1.568   3.131   1.837  1.0865  1.1390 -0.7457
12720SOL    HW239581   1.506   3.249   1.907 -2.1970 -0.8104 -0.1338
12721SOL     OW39582   4.880   0.389   3.187  0.0426 -0.2204 -0.4048
12721SOL    HW139583   4.833   0.306   3.182  0.8783 -0.7074 -0.3906
12721SOL    HW239584   4.877   0.424   3.098  1.4317 -1.2771 -0.9089
12722SOL     OW39585   1.168   4.214   6.511  0.8260 -0.0115  0.3941
12722SOL    HW139586   1.114   4.193   6.435 -1.0686  0.2531  1.6046
12722SOL    HW239587   1.200   4.303   6.494 -0.6919  0.5821  0.4773
12723SOL     OW39588   4.761   3.081   3.826 -0.5570  0.0704 -0.1023
12723SOL    HW139589   4.783   2.999   3.783 -0.2756  1.0409 -1.9125
12723SOL    HW239590   4.680   3.109   3.784 -1.0106  0.4103  0.9645
12724SOL     OW39591   0.295   1.867   6.299  0.2327 -0.9049 -0.3108
12724SOL    HW139592   0.320   1.878   6.390  0.6748 -1.6834 -0.3284
12724SOL    HW239593   0.343   1.935   6.252 -1.8250  1.1059  0.2851
12725SOL     OW39594   4.499   7.246   1.608 -0.0029  0.0321 -0.2471
12725SOL    HW139595   4.489   7.259   1.514  1.7425 -1.6286 -0.7173
12725SOL    HW239596   4.409   7.232   1.640 -0.6227  0.7467 -1.6249
12726SOL     OW39597   5.462   4.367   2.928  0.1262 -0.2741 -0.0936
12726SOL    HW139598   5.386   4.312   2.947  0.3298 -0.4339  0.2743
12726SOL    HW239599   5.426   4.456   2.920  0.0933 -0.0627  1.7998
12727SOL     OW39600   1.032   6.211   5.110  0.4616 -0.1859  0.5578
12727SOL    HW139601   1.024   6.199   5.015 -0.1439 -0.5056  0.6464
12727SOL    HW239602   1.072   6.297   5.119 -0.8354  0.5071  0.0296
12728SOL     OW39603   0.911   2.597   3.440  0.1056 -0.6548  0.0431
12728SOL    HW139604   0.941   2.643   3.361  1.1802 -0.7973  0.3454
12728SOL    HW239605   0.834   2.547   3.411 -0.5116  0.5864 -0.5071
12729SOL     OW39606   1.491   0.866   1.457 -0.3476  0.2549  0.1210
12729SOL    HW139607   1.458   0.785   1.418 -0.0829 -0.0466  0.5162
12729SOL    HW239608   1.414   0.907   1.496 -0.3308 -0.2533  0.7056
12730SOL     OW39609   6.204   3.812   5.966  0.1139  0.2198  0.8427
12730SOL    HW139610   6.176   3.897   6.000 -1.3456 -0.7778  2.2862
12730SOL    HW239611   6.149   3.748   6.012  1.2139 -1.5244 -0.1395
12731SOL     OW39612   2.144   5.006   0.328 -0.3799 -0.0100 -0.1330
12731SOL    HW139613   2.175   5.086   0.370 -0.0585  0.0367 -0.4552
12731SOL    HW239614   2.062   5.031   0.286  0.3493  0.4763 -1.2995
12732SOL     OW39615   5.119   5.063   7.487  0.2128 -0.5004  0.2884
12732SOL    HW139616   5.100   5.059   7.581 -0.8254  0.1002  0.1198
12732SOL    HW239617   5.189   5.128   7.479 -0.6687  0.4929  0.5175
12733SOL     OW39618   6.903   0.825   4.535  0.1082 -0.2602  0.5360
12733SOL    HW139619   6.885   0.880   4.459 -0.3045 -0.3077  0.6009
12733SOL    HW239620   6.818   0.812   4.577  0.0249 -1.7337 -0.0046
12734SOL     OW39621   4.665   6.811   3.834  0.5506  0.0836  0.3839
12734SOL    HW139622   4.644   6.812   3.927 -0.0272 -0.4086  0.2724
12734SOL    HW239623   4.760   6.796   3.830  0.8012  1.4138  0.8973
12735SOL     OW39624   3.898   0.554   4.528 -0.0261 -0.1356  0.7975
12735SOL    HW139625   3.811   0.562   4.565 -0.2471 -1.5115  0.6210
12735SOL    HW239626   3.947   0.628   4.566 -1.6890  1.7047 -0.4454
12736SOL     OW39627   4.579   3.125   5.746  0.8570  0.3673 -0.3697
12736SOL    HW139628   4.608   3.216   5.741  3.7825 -0.2843  1.9804
12736SOL    HW239629   4.660   3.075   5.753 -0.6420 -2.5243 -2.0349
12737SOL     OW39630   3.255   6.170   4.221 -0.0841  0.3615 -0.1074
12737SOL    HW139631   3.214   6.227   4.156 -0.4617 -1.0840 -1.1917
12737SOL    HW239632   3.270   6.088   4.175 -0.4668 -0.7658  1.6823
12738SOL     OW39633   5.349   5.761   2.712  0.1296  0.0357 -0.1650
12738SOL    HW139634   5.280   5.810   2.667 -0.8290  0.3333  1.5336
12738SOL    HW239635   5.428   5.814   2.700 -0.4294  0.8776 -0.2238
12739SOL     OW39636   6.288   0.570   1.622 -0.7582  0.1634 -0.4714
12739SOL    HW139637   6.368   0.547   1.575 -0.8411 -2.9260  0.6378
12739SOL    HW239638   6.217   0.541   1.564 -1.0166  0.8327 -0.4996
12740SOL     OW39639   0.893   7.689   7.483  0.3530 -0.2464 -0.1497
12740SOL    HW139640   0.914   7.723   7.570 -0.9868 -1.6346  0.7740
12740SOL    HW239641   0.943   7.744   7.423  4.0249 -1.3652  1.6111
12741SOL     OW39642   2.469   0.415   3.131  0.6900 -0.0999  0.5039
12741SOL    HW139643   2.516   0.408   3.213  1.7762  0.1060 -0.0820
12741SOL    HW239644   2.459   0.509   3.117 -0.1511 -0.1449  0.7571
12742SOL     OW39645   7.437   6.685   1.669  0.6032  0.3399 -0.2934
12742SOL    HW139646   7.464   6.754   1.730  0.3210  0.4507 -0.2905
12742SOL    HW239647   7.431   6.606   1.723  0.0509  0.5038 -0.1124
12743SOL     OW39648   1.261   0.142   2.546 -0.7497 -0.1962  0.1377
12743SOL    HW139649   1.349   0.172   2.522 -0.7254 -0.5168 -0.1846
12743SOL    HW239650   1.228   0.210   2.605 -0.2937 -0.0647  0.2476
12744SOL     OW39651   0.048   7.926   1.979 -0.4086 -0.3903  0.2553
12744SOL    HW139652   0.121   7.867   1.960  0.6965  0.5259  1.5004
12744SOL    HW239653   0.005   7.887   2.056  1.5596  1.3958  2.3808
12745SOL     OW39654   6.850   2.657   1.373 -0.3399  0.0478  0.5556
12745SOL    HW139655   6.769   2.707   1.363 -0.6868 -0.1603  2.0565
12745SOL    HW239656   6.887   2.654   1.285 -1.1784  1.4514  0.1171
12746SOL     OW39657   5.233   6.787   3.807  0.1776 -0.0937  0.2266
12746SOL    HW139658   5.238   6.837   3.726  1.1956 -0.4582  0.0468
12746SOL    HW239659   5.321   6.751   3.818 -0.1746 -0.7268  1.0578
12747SOL     OW39660   2.443   2.658   2.161  0.2882 -0.0579 -0.2233
12747SOL    HW139661   2.348   2.673   2.153  0.4583  1.1875 -0.0936
12747SOL    HW239662   2.466   2.696   2.246  0.9625 -0.1084 -0.3785
12748SOL     OW39663   5.427   3.105   6.022  0.2718 -0.0671  0.1871
12748SOL    HW139664   5.523   3.111   6.031  0.3230  1.1018 -0.9453
12748SOL    HW239665   5.397   3.078   6.109  1.6692 -1.1050  0.3845
12749SOL     OW39666   1.187   5.813   6.121  0.4040 -0.5506  0.1534
12749SOL    HW139667   1.134   5.737   6.099 -0.0407  0.0742 -0.9924
12749SOL    HW239668   1.276   5.778   6.131  0.7686 -0.8689 -3.2265
12750SOL     OW39669   7.031   1.215   5.092 -0.0422 -0.4157 -0.2302
12750SOL    HW139670   7.096   1.271   5.049  0.2379  0.1481  0.8815
12750SOL    HW239671   7.065   1.204   5.181 -1.4366 -0.1545  0.3640
12751SOL     OW39672   7.705   1.847   1.899 -0.1958  0.5857 -0.0739
12751SOL    HW139673   7.615   1.827   1.871  0.1256 -0.4827 -0.4110
12751SOL    HW239674   7.758   1.834   1.821  0.5511 -1.1656  0.6584
12752SOL     OW39675   7.384   3.006   5.942 -0.1938 -0.7903 -0.3902
12752SOL    HW139676   7.400   2.914   5.964  0.5458 -0.9253 -1.4431
12752SOL    HW239677   7.295   3.023   5.975  0.3924 -1.2889  1.6129
12753SOL     OW39678   3.622   1.573   1.129  0.1750 -0.2733 -0.3034
12753SOL    HW139679   3.634   1.481   1.152  0.7263 -0.4206 -1.1245
12753SOL    HW239680   3.660   1.621   1.202 -0.5001 -0.6786  0.3355
12754SOL     OW39681   2.404   2.078   4.729 -0.2011  0.4518  0.0591
12754SOL    HW139682   2.468   2.089   4.799  0.5608  1.1739 -0.7303
12754SOL    HW239683   2.436   2.004   4.678 -0.8085 -0.1360  0.5208
12755SOL     OW39684   3.473   4.971   2.120  0.4915  0.0087  0.2470
12755SOL    HW139685   3.381   4.996   2.118  0.5616  0.9564 -4.8800
12755SOL    HW239686   3.475   4.887   2.164 -2.6176  0.4817  1.4831
12756SOL     OW39687   4.596   1.281   2.129 -0.6388 -0.1013 -0.1623
12756SOL    HW139688   4.634   1.368   2.138 -0.2239 -0.3901  0.9889
12756SOL    HW239689   4.501   1.296   2.135 -0.6940  0.4576 -1.7545
12757SOL     OW39690   2.502   0.480   0.587  0.1324 -0.3378 -0.2429
12757SOL    HW139691   2.422   0.432   0.603 -0.4477  0.7870  0.3604
12757SOL    HW239692   2.494   0.559   0.641  1.1057  0.3584 -1.0738
12758SOL     OW39693   1.689   6.200   0.323  0.0277 -0.5309  0.6362
12758SOL    HW139694   1.702   6.112   0.288 -1.1832  0.2931 -2.1406
12758SOL    HW239695   1.595   6.207   0.337  0.2178  0.0429  1.7499
12759SOL     OW39696   5.769   4.591   4.892  0.5843 -0.0032 -0.4181
12759SOL    HW139697   5.809   4.517   4.938  0.7560  0.3786  0.0475
12759SOL    HW239698   5.699   4.551   4.841  2.6244 -0.9615 -2.6610
12760SOL     OW39699   6.676   2.721   0.234  0.5029  0.4598  0.7232
12760SOL    HW139700   6.747   2.784   0.249  1.8934 -0.6134 -0.9072
12760SOL    HW239701   6.701   2.676   0.153 -1.0850 -1.2986  1.1422
12761SOL     OW39702   6.755   6.662   4.181  0.0753  0.4409  0.0603
12761SOL    HW139703   6.832   6.616   4.148  0.9828  2.0044 -0.1243
12761SOL    HW239704   6.789   6.748   4.208 -1.0571  0.1476  2.7587
12762SOL     OW39705   4.215   2.976   6.183  0.0048 -0.4062  0.2972
12762SOL    HW139706   4.177   3.061   6.162  3.0556  0.5889 -2.0498
12762SOL    HW239707   4.181   2.917   6.116 -3.1099 -1.5281  2.6595
12763SOL     OW39708   0.989   4.321   7.130  0.0545  0.0399 -1.1833
12763SOL    HW139709   0.976   4.243   7.076 -0.4453 -0.3301 -0.5431
12763SOL    HW239710   0.909   4.372   7.119  0.1805  0.2353 -1.2172
12764SOL     OW39711   2.782   7.800   0.436  0.0514  0.5963 -0.2907
12764SOL    HW139712   2.856   7.808   0.377 -0.1203  1.5992 -0.3853
12764SOL    HW239713   2.744   7.714   0.416  0.8840  0.2961 -0.5831
12765SOL     OW39714   1.127   5.212   4.527 -0.4313  0.2743 -0.2751
12765SOL    HW139715   1.203   5.231   4.471 -0.1259 -0.7278 -0.2221
12765SOL    HW239716   1.078   5.294   4.530 -0.2686  0.4542 -1.7360
12766SOL     OW39717   4.356   0.861   5.844 -0.4717 -0.2984  0.7906
12766SOL    HW139718   4.308   0.937   5.811  0.8434  0.0106 -0.5177
12766SOL    HW239719   4.343   0.863   5.939  0.3573  2.1754  0.9206
12767SOL     OW39720   3.570   7.545   1.451  0.0659 -0.5153 -0.0851
12767SOL    HW139721   3.554   7.503   1.536  2.0580  0.8195  1.0395
12767SOL    HW239722   3.655   7.511   1.423  1.1874  1.7594  0.3025
12768SOL     OW39723   6.667   0.912   5.283  0.7545  0.6057  0.2826
12768SOL    HW139724   6.761   0.920   5.303  0.6400  0.4938  0.8798
12768SOL    HW239725   6.665   0.880   5.193  1.2966  0.0539  0.4556
12769SOL     OW39726   6.812   4.021   3.744 -0.4029 -0.1899  0.1576
12769SOL    HW139727   6.820   3.985   3.655  0.2029 -2.1373  0.9650
12769SOL    HW239728   6.788   3.947   3.799 -0.1736  0.8526  1.7384
12770SOL     OW39729   2.136   5.149   5.754 -0.1286 -0.3015  0.0295
12770SOL    HW139730   2.112   5.184   5.839 -2.4618  1.4874 -1.2334
12770SOL    HW239731   2.065   5.089   5.731  0.7036 -1.1253 -0.4687
12771SOL     OW39732   7.298   2.618   1.006  0.1040  0.2321 -0.0474
12771SOL    HW139733   7.279   2.557   1.077 -3.2217  0.7368 -0.3612
12771SOL    HW239734   7.355   2.569   0.947  1.2209 -0.9206  1.8598
12772SOL     OW39735   0.897   1.180   7.788  0.2781 -0.3031  0.0296
12772SOL    HW139736   0.962   1.250   7.785  0.4152 -0.4196  0.2268
12772SOL    HW239737   0.870   1.169   7.697 -0.5066  0.7014  0.1273
12773SOL     OW39738   6.585   4.412   6.402  0.8416 -0.0309  0.0132
12773SOL    HW139739   6.624   4.417   6.315  1.1409  0.4676  0.1779
12773SOL    HW239740   6.654   4.375   6.457  0.4817 -0.8480 -0.0569
12774SOL     OW39741   1.468   5.633   4.816  0.4042 -0.1215  0.0676
12774SOL    HW139742   1.416   5.580   4.756  0.2434  2.1578 -1.9962
12774SOL    HW239743   1.404   5.682   4.867  0.5109  0.7592 -0.6288
12775SOL     OW39744   4.065   5.297   3.822 -0.1633 -0.1693  0.0214
12775SOL    HW139745   3.973   5.284   3.844 -0.2385  0.5799  0.1882
12775SOL    HW239746   4.100   5.209   3.810 -1.4488 -0.4304 -2.3729
12776SOL     OW39747   2.790   5.539   2.573 -0.0906 -0.1362  0.4895
12776SOL    HW139748   2.697   5.515   2.575 -0.2697  0.3535 -0.8068
12776SOL    HW239749   2.813   5.554   2.664 -0.9316 -1.5397  0.9754
12777SOL     OW39750   2.892   0.604   7.581  0.3096 -0.5061  0.4078
12777SOL    HW139751   2.971   0.639   7.622 -0.0395  0.8223 -0.0087
12777SOL    HW239752   2.831   0.678   7.580 -0.2827 -0.9932 -0.9556
12778SOL     OW39753   2.513   3.337   7.897 -0.2708 -0.3769 -0.5979
12778SOL    HW139754   2.558   3.421   7.892 -0.0660 -0.5233 -1.2596
12778SOL    HW239755   2.478   3.323   7.809 -3.1887  0.6005  0.2777
12779SOL     OW39756   0.573   2.834   0.938 -0.2701  0.2025 -0.5267
12779SOL    HW139757   0.539   2.904   0.883 -0.4819 -0.9492 -1.9317
12779SOL    HW239758   0.600   2.766   0.876  0.5734 -0.6747  0.7587
12780SOL     OW39759   0.420   3.839   2.367 -0.0789  0.2717  0.3621
12780SOL    HW139760   0.366   3.886   2.304 -0.2606 -1.9957 -1.2815
12780SOL    HW239761   0.358   3.810   2.434 -0.8899 -1.6355 -1.1060
12781SOL     OW39762   3.968   3.640   6.888  0.1307  0.0639  0.1944
12781SOL    HW139763   3.937   3.641   6.978 -1.1749 -1.3769 -0.1964
12781SOL    HW239764   4.042   3.580   6.888 -1.6896 -2.3553 -0.1525
12782SOL     OW39765   3.497   7.557   3.688  0.2659  0.4198  0.4180
12782SOL    HW139766   3.443   7.548   3.767  0.7954 -1.6220  0.6067
12782SOL    HW239767   3.573   7.608   3.717 -0.1721  0.8247  0.8827
12783SOL     OW39768   0.539   2.929   4.040  0.2445  0.8317 -0.4737
12783SOL    HW139769   0.558   2.956   4.129 -0.4663  1.1269 -0.4036
12783SOL    HW239770   0.611   2.870   4.016  0.7720  1.2524  0.0611
12784SOL     OW39771   4.268   4.749   1.839  0.0444  0.4452  0.4492
12784SOL    HW139772   4.301   4.810   1.904  1.7528  0.3364 -0.2692
12784SOL    HW239773   4.305   4.664   1.864  1.7062  0.6045 -1.2786
12785SOL     OW39774   2.865   2.659   8.051  0.3364 -0.1532  0.5651
12785SOL    HW139775   2.780   2.701   8.065 -1.3432 -3.0140 -0.1167
12785SOL    HW239776   2.866   2.587   8.114  1.3588 -1.3439 -0.7411
12786SOL     OW39777   1.425   3.508   6.344 -0.0366 -0.3981 -0.1881
12786SOL    HW139778   1.364   3.490   6.416  0.4780 -0.6741  0.1840
12786SOL    HW239779   1.463   3.423   6.324 -0.1235 -0.3105 -0.7490
12787SOL     OW39780   0.040   0.560   6.912  0.2143 -0.2337  0.3920
12787SOL    HW139781   0.048   0.598   6.825 -0.3447 -0.8949  0.0405
12787SOL    HW239782   0.001   0.474   6.897  1.4545 -0.9742  1.1559
12788SOL     OW39783   5.200   0.466   6.663 -0.0739  0.2360 -0.1244
12788SOL    HW139784   5.291   0.444   6.645 -0.1736  0.0812 -0.4609
12788SOL    HW239785   5.200   0.498   6.753  0.3884  0.6813 -0.2752
12789SOL     OW39786   0.759   2.645   7.039  0.2030 -0.0747 -0.0211
12789SOL    HW139787   0.723   2.731   7.017 -1.3820 -0.1118  2.1413
12789SOL    HW239788   0.852   2.660   7.051 -0.3260  1.8718  2.4087
12790SOL     OW39789   5.942   5.450   5.240 -0.4673  0.5519  0.5783
12790SOL    HW139790   5.987   5.420   5.318 -3.1743 -1.1920  1.5886
12790SOL    HW239791   5.993   5.526   5.211  2.1393 -0.3345  2.4451
12791SOL     OW39792   5.045   2.647   3.267  0.2071 -0.2098  0.3626
12791SOL    HW139793   4.970   2.642   3.326  0.6716 -2.9421  0.8603
12791SOL    HW239794   5.118   2.612   3.317  1.5930  1.2578 -0.5204
12792SOL     OW39795   5.516   7.964   2.015  0.2122  0.3941  0.3893
12792SOL    HW139796   5.487   7.892   1.959 -0.3955 -0.5001  1.8150
12792SOL    HW239797   5.436   8.006   2.044  0.3619 -0.6153  2.4340
12793SOL     OW39798   1.076   6.633   0.561 -0.3145  0.0115  0.1461
12793SOL    HW139799   1.032   6.552   0.587  1.5062 -0.8611  0.6480
12793SOL    HW239800   1.135   6.606   0.490 -0.3894  1.0995 -0.3480
12794SOL     OW39801   4.927   6.733   0.281 -0.4129  0.4911  0.1414
12794SOL    HW139802   4.879   6.789   0.342 -0.8520  0.1308  0.1338
12794SOL    HW239803   4.954   6.657   0.333  1.1474  1.2047  0.4297
12795SOL     OW39804   2.583   0.119   7.672  0.1963 -0.2098 -0.0383
12795SOL    HW139805   2.579   0.182   7.744 -1.3998  2.0873 -1.9466
12795SOL    HW239806   2.491   0.094   7.658  0.2171  0.6601 -2.1898
12796SOL     OW39807   4.111   6.858   6.494 -0.2713 -0.0156 -0.6330
12796SOL    HW139808   4.035   6.801   6.482  0.6976 -1.5595  0.3531
12796SOL    HW239809   4.151   6.829   6.576  2.0157  0.0252 -1.6581
12797SOL     OW39810   3.393   2.085   4.436  0.4485  0.0820 -0.1429
12797SOL    HW139811   3.328   2.051   4.498 -0.4040 -0.1365 -1.1291
12797SOL    HW239812   3.476   2.048   4.466  0.1479  0.4146  1.1779
12798SOL     OW39813   2.096   6.682   0.335 -0.2886  0.0298 -0.5390
12798SOL    HW139814   2.133   6.711   0.252 -2.6537  0.2030 -1.6243
12798SOL    HW239815   2.001   6.694   0.325 -0.7812 -1.3543  1.6307
12799SOL     OW39816   4.559   0.334   8.010  0.2028  0.6852  0.1741
12799SOL    HW139817   4.524   0.384   7.936  1.8628  3.2529  1.0078
12799SOL    HW239818   4.530   0.382   8.088  0.4457 -0.6294  1.1045
12800SOL     OW39819   1.650   2.204   1.634 -0.6324 -0.3259 -0.5187
12800SOL    HW139820   1.732   2.246   1.661 -1.8728  3.0164 -1.4398
12800SOL    HW239821   1.608   2.179   1.717  1.3821 -2.4982 -0.0394
12801SOL     OW39822   1.316   3.018   7.182  0.1119 -0.3373  0.1139
12801SOL    HW139823   1.404   3.003   7.148  0.3215 -0.1270  0.5504
12801SOL    HW239824   1.330   3.066   7.263 -0.4253  0.0879 -0.0352
12802SOL     OW39825   3.960   5.334   1.502 -0.1857 -0.4879  0.2761
12802SOL    HW139826   3.995   5.369   1.584  1.8051  0.2359 -0.8058
12802SOL    HW239827   4.013   5.375   1.434 -0.4867 -2.5205 -1.2884
12803SOL     OW39828   4.684   5.174   6.548  0.3352  0.3105 -0.0561
12803SOL    HW139829   4.705   5.088   6.511  0.1354 -0.1818  0.9239
12803SOL    HW239830   4.756   5.192   6.609  0.2802  0.7528 -0.1181
12804SOL     OW39831   7.183   6.595   5.662 -0.1191 -0.2527 -0.4171
12804SOL    HW139832   7.224   6.654   5.599 -0.1625  0.6800  0.4000
12804SOL    HW239833   7.089   6.602   5.644 -0.2976  1.4527  0.9049
12805SOL     OW39834   0.891   1.396   2.257 -0.0937 -0.1897  0.0250
12805SOL    HW139835   0.826   1.448   2.208 -1.1559 -0.5794  0.9815
12805SOL    HW239836   0.963   1.458   2.274 -0.9201  0.7172  0.3285
12806SOL     OW39837   4.433   2.406   3.801  0.5200  0.2626  0.4622
12806SOL    HW139838   4.485   2.470   3.753 -0.6447  0.9177  0.0225
12806SOL    HW239839   4.362   2.458   3.841 -0.6439 -0.7728 -0.1867
12807SOL     OW39840   6.791   1.972   2.875  0.2329 -0.2100  0.1093
12807SOL    HW139841   6.844   1.897   2.848  1.8278  0.5594  0.9148
12807SOL    HW239842   6.820   2.044   2.819 -2.3548 -0.4684 -1.6971
12808SOL     OW39843   0.637   6.562   2.473  0.0952  0.0761 -0.3927
12808SOL    HW139844   0.579   6.516   2.535 -0.0388 -0.7565 -1.1201
12808SOL    HW239845   0.695   6.493   2.441  0.2276  0.5274 -1.1182
12809SOL     OW39846   0.178   3.680   4.149  0.6966  0.4176 -0.3969
12809SOL    HW139847   0.127   3.618   4.202  0.7172  1.0268  0.3579
12809SOL    HW239848   0.146   3.766   4.176  0.2526  0.7443 -1.8490
12810SOL     OW39849   0.249   7.014   7.502 -0.2393  0.1324  0.0150
12810SOL    HW139850   0.204   6.951   7.559 -0.0338 -1.6054 -1.6453
12810SOL    HW239851   0.281   7.082   7.562 -2.5255 -0.0679  1.6058
12811SOL     OW39852   2.722   1.505   3.524 -0.1688 -0.5717  0.7109
12811SOL    HW139853   2.792   1.512   3.589  0.7170  0.5063 -0.3078
12811SOL    HW239854   2.755   1.441   3.460  0.0523  0.1785  0.0578
12812SOL     OW39855   2.801   6.109   0.040  0.0883 -0.3004  0.3020
12812SOL    HW139856   2.797   6.032   0.097 -0.8835 -0.2966  0.2593
12812SOL    HW239857   2.710   6.141   0.036  0.6205  1.4849  1.2008
12813SOL     OW39858   7.802   4.576   4.017 -0.1671 -0.3581 -0.2992
12813SOL    HW139859   7.786   4.669   3.999 -0.3546 -0.1779  0.7794
12813SOL    HW239860   7.860   4.575   4.092  1.3299 -1.1017 -1.4070
12814SOL     OW39861   0.761   5.468   3.244 -0.0518  0.2923 -0.5458
12814SOL    HW139862   0.676   5.424   3.243  0.0728 -0.1003  1.4757
12814SOL    HW239863   0.812   5.424   3.176 -1.6396  1.0137 -2.3093
12815SOL     OW39864   6.450   7.965   6.289  0.3934 -0.1270 -0.3088
12815SOL    HW139865   6.487   8.014   6.363  0.5540  0.5774 -0.8455
12815SOL    HW239866   6.378   7.914   6.327 -1.0916  2.0248 -0.0460
12816SOL     OW39867   3.300   1.403   2.905 -0.5586  0.1221 -0.3557
12816SOL    HW139868   3.336   1.393   2.994  2.6858 -0.1615 -1.5720
12816SOL    HW239869   3.275   1.315   2.879 -2.2322  0.3079  0.4701
12817SOL     OW39870   2.386   6.120   0.529 -0.2700  0.1416  0.5838
12817SOL    HW139871   2.364   6.182   0.599 -0.5976 -0.4256  0.9871
12817SOL    HW239872   2.404   6.038   0.574  0.4552  0.0072  0.0706
12818SOL     OW39873   0.729   4.819   1.285  0.3460  0.7027  0.1167
12818SOL    HW139874   0.679   4.763   1.346  1.6615 -2.8951 -1.7904
12818SOL    HW239875   0.816   4.824   1.325  0.6298  0.1087 -0.4128
12819SOL     OW39876   3.726   5.072   0.724 -0.1497  0.0517 -0.2427
12819SOL    HW139877   3.733   5.133   0.798 -0.4049 -1.7874  1.3632
12819SOL    HW239878   3.784   4.999   0.748 -0.8689 -0.9479 -1.4866
12820SOL     OW39879   1.610   1.598   4.535 -0.5657 -0.0256 -0.3535
12820SOL    HW139880   1.685   1.573   4.589 -0.7621 -1.8338 -0.8307
12820SOL    HW239881   1.647   1.653   4.466  0.3232 -0.8130 -0.5232
12821SOL     OW39882   3.374   4.303   4.176 -0.1443 -0.0710  0.0677
12821SOL    HW139883   3.448   4.268   4.225  0.3539  1.3893  0.4316
12821SOL    HW239884   3.308   4.234   4.179 -0.1351 -0.0856  2.8136
12822SOL     OW39885   0.216   3.235   3.837  0.4609 -0.3934  0.1622
12822SOL    HW139886   0.214   3.152   3.885 -0.7619 -0.2045  0.4881
12822SOL    HW239887   0.148   3.288   3.879  0.3810  0.3213 -0.8335
12823SOL     OW39888   5.315   7.170   6.104  0.6406 -0.5570  0.1851
12823SOL    HW139889   5.243   7.216   6.061 -0.3844 -1.1072  1.2373
12823SOL    HW239890   5.378   7.152   6.034  0.7455  1.7437 -0.3937
12824SOL     OW39891   0.737   4.321   5.697 -0.4608  1.1056  0.3276
12824SOL    HW139892   0.710   4.344   5.786 -2.2226  3.3821 -0.6813
12824SOL    HW239893   0.659   4.285   5.656 -0.1975  1.7261 -0.7812
12825SOL     OW39894   6.957   2.289   3.343  0.3510  0.3052 -0.0166
12825SOL    HW139895   6.938   2.316   3.254 -1.7904  2.2742  0.9402
12825SOL    HW239896   7.051   2.303   3.353  1.0819 -1.9834 -2.5127
12826SOL     OW39897   1.568   7.411   5.395 -0.0658  0.0187  0.2394
12826SOL    HW139898   1.654   7.449   5.408  0.3133 -0.8043  0.1703
12826SOL    HW239899   1.517   7.480   5.352  0.4357  0.6372  0.6213
12827SOL     OW39900   7.969   2.005   7.733 -0.6196  0.0995  0.5274
12827SOL    HW139901   7.888   2.034   7.690 -0.9087 -0.0554  0.9498
12827SOL    HW239902   8.010   2.086   7.763 -0.7017  0.1708  0.4486
12828SOL     OW39903   0.816   3.148   0.345  0.4686 -0.1868  1.0980
12828SOL    HW139904   0.815   3.081   0.276  0.3729 -0.1784  1.0910
12828SOL    HW239905   0.851   3.226   0.302 -0.9845  0.2504  0.6521
12829SOL     OW39906   6.696   7.492   7.769 -0.3001 -0.4586  0.3248
12829SOL    HW139907   6.650   7.518   7.848 -0.2738  1.5930 -0.2842
12829SOL    HW239908   6.789   7.497   7.792 -0.2275  1.7136 -0.2152
12830SOL     OW39909   8.051   1.980   4.020 -0.0195 -0.2229 -0.2314
12830SOL    HW139910   8.066   2.021   4.106 -0.6011 -1.3872  0.4484
12830SOL    HW239911   7.971   2.021   3.987  0.3205  0.3781 -0.3103
12831SOL     OW39912   6.674   7.707   2.306  0.4177  0.4048  1.2304
12831SOL    HW139913   6.601   7.768   2.310 -0.1599 -0.2651  1.1647
12831SOL    HW239914   6.634   7.621   2.316  1.1816  0.0124  1.0306
12832SOL     OW39915   5.851   2.211   2.380  0.3758 -0.2575 -0.4445
12832SOL    HW139916   5.882   2.264   2.307  0.4481 -0.1928 -0.3666
12832SOL    HW239917   5.914   2.228   2.451 -0.5584  0.8835  0.1449
12833SOL     OW39918   5.446   1.578   4.751  0.2094 -0.2698 -0.1435
12833SOL    HW139919   5.426   1.643   4.818  1.3768 -0.4366  0.3804
12833SOL    HW239920   5.516   1.617   4.699  1.2180 -1.2670  0.4380
12834SOL     OW39921   3.412   2.578   1.782  0.1069  0.5882 -0.1137
12834SOL    HW139922   3.328   2.555   1.820  0.7552  2.0047  2.3853
12834SOL    HW239923   3.474   2.515   1.821  0.1067 -1.5810 -3.2270
12835SOL     OW39924   3.009   4.859   1.380 -0.1671 -0.4417 -0.8652
12835SOL    HW139925   3.073   4.895   1.441 -0.7413  0.5712 -0.8389
12835SOL    HW239926   3.060   4.836   1.303  0.7659 -2.8268  0.3643
12836SOL     OW39927   0.669   3.008   1.124  0.2057  0.1041  0.0923
12836SOL    HW139928   0.763   3.026   1.112  0.1073  0.3996 -0.2505
12836SOL    HW239929   0.647   2.948   1.054 -0.0892  0.8504 -0.4681
12837SOL     OW39930   4.970   3.378   3.000 -0.2432 -0.4881  0.9536
12837SOL    HW139931   5.063   3.386   2.977 -0.9251  0.4795 -2.0668
12837SOL    HW239932   4.965   3.302   3.057  2.3045 -1.1002  0.4919
12838SOL     OW39933   0.027   7.329   2.882 -0.3140  0.4085  0.2435
12838SOL    HW139934   0.106   7.317   2.829  0.7184  0.6713  1.6412
12838SOL    HW239935  -0.012   7.242   2.888  0.3088  0.1206  0.1745
12839SOL     OW39936   2.290   2.828   6.258  0.3507 -0.2848 -0.1852
12839SOL    HW139937   2.273   2.898   6.322 -1.0265 -0.6336 -0.1457
12839SOL    HW239938   2.282   2.747   6.308  2.0321 -0.5025 -0.2139
12840SOL     OW39939   3.766   0.304   4.396 -0.0163 -0.1320  0.3499
12840SOL    HW139940   3.731   0.272   4.313  1.4954  0.6816 -0.6314
12840SOL    HW239941   3.776   0.398   4.383  1.9991 -0.2651  0.7664
12841SOL     OW39942   5.581   5.085   4.491 -0.5406  0.1837  0.5890
12841SOL    HW139943   5.500   5.034   4.496 -3.3333  3.9721 -0.6963
12841SOL    HW239944   5.627   5.050   4.415 -1.2682 -1.6221  0.9211
12842SOL     OW39945   6.509   5.333   5.830 -0.2976  0.2473 -0.3495
12842SOL    HW139946   6.569   5.279   5.778  0.2121  0.7507 -0.2884
12842SOL    HW239947   6.563   5.407   5.859 -0.8195  0.4414  0.1249
12843SOL     OW39948   0.381   0.158   6.348 -0.0624 -0.6443  0.0695
12843SOL    HW139949   0.383   0.245   6.309  1.6019 -0.6777  0.0309
12843SOL    HW239950   0.466   0.120   6.327 -0.5756 -2.1039  0.5054
12844SOL     OW39951   7.191   0.056   7.067 -0.5091 -0.7050 -0.4742
12844SOL    HW139952   7.279   0.063   7.104 -0.9504  1.0610  0.3766
12844SOL    HW239953   7.197  -0.015   7.003  2.2630  1.0370 -2.3709
12845SOL     OW39954   5.868   6.666   2.676  0.3820 -0.0806  0.4552
12845SOL    HW139955   5.809   6.687   2.748  0.0187 -1.1732  0.4787
12845SOL    HW239956   5.910   6.750   2.655 -0.2735  0.4565  1.2384
12846SOL     OW39957   0.995   5.599   8.013 -0.5883  0.6676 -0.6221
12846SOL    HW139958   0.903   5.578   7.994 -0.2404 -0.4650 -1.1188
12846SOL    HW239959   1.028   5.521   8.058  0.4673  0.5344 -1.5968
12847SOL     OW39960   0.250   2.744   2.838 -0.2917 -0.0016 -0.4741
12847SOL    HW139961   0.311   2.811   2.867  2.4180 -2.3984 -0.1798
12847SOL    HW239962   0.192   2.729   2.914  0.6883  0.2760  0.3473
12848SOL     OW39963   4.031   2.061   7.947 -0.0595  0.4140 -0.2414
12848SOL    HW139964   4.096   2.069   7.876  0.3374 -0.0581  0.0627
12848SOL    HW239965   3.949   2.092   7.908  0.1568  0.1682 -0.9087
12849SOL     OW39966   2.611   6.326   4.269 -0.3197  0.5282  0.7692
12849SOL    HW139967   2.558   6.261   4.223  0.9864 -0.8587  1.1141
12849SOL    HW239968   2.667   6.274   4.327  1.7478  1.8606  0.0712
12850SOL     OW39969   7.416   7.037   7.196 -0.8859  0.1343  0.4376
12850SOL    HW139970   7.388   6.967   7.255 -0.7317 -0.5001 -0.2172
12850SOL    HW239971   7.508   7.052   7.219 -0.9372  0.1609  0.6247
12851SOL     OW39972   1.556   6.947   0.212 -0.1018  0.4437 -0.5985
12851SOL    HW139973   1.572   6.854   0.199  0.5846  0.3935  0.4705
12851SOL    HW239974   1.469   6.952   0.251  0.1471  0.1823  0.0042
12852SOL     OW39975   0.130   1.076   6.770 -0.0290 -0.1592 -0.1369
12852SOL    HW139976   0.119   1.037   6.857  0.6745  0.8972  0.4401
12852SOL    HW239977   0.068   1.028   6.715 -0.1114 -1.2067  0.8193
12853SOL     OW39978   1.961   7.375   4.430 -0.0544 -0.2560  0.1901
12853SOL    HW139979   1.930   7.446   4.373 -0.1347  0.4216  1.0532
12853SOL    HW239980   1.883   7.326   4.453 -0.0566 -0.3814 -0.0855
12854SOL     OW39981   7.759   3.749   3.310  0.3754 -0.0175 -0.2881
12854SOL    HW139982   7.780   3.660   3.285  1.9039  0.6456 -1.5114
12854SOL    HW239983   7.821   3.769   3.381 -0.7425 -0.2777  0.8084
12855SOL     OW39984   5.048   3.349   6.793 -0.2995  0.3131 -0.1057
12855SOL    HW139985   5.039   3.306   6.708 -0.3550  0.0726  0.0217
12855SOL    HW239986   5.040   3.278   6.857 -3.2281  0.8268  0.2513
12856SOL     OW39987   2.091   0.943   6.911  0.1269 -0.1771  0.0489
12856SOL    HW139988   2.050   0.956   6.997 -1.3152  2.5081 -0.9291
12856SOL    HW239989   2.061   0.856   6.884  0.8345 -1.2185  2.3178
12857SOL     OW39990   2.487   5.484   5.185  0.4671  0.2463 -0.4323
12857SOL    HW139991   2.579   5.471   5.162  0.7292  2.5513 -0.9162
12857SOL    HW239992   2.448   5.397   5.175  2.6032 -0.8477  0.0040
12858SOL     OW39993   6.667   5.116   6.174  0.1790 -0.2136 -0.0027
12858SOL    HW139994   6.746   5.166   6.194  0.7050 -1.2054  0.4307
12858SOL    HW239995   6.609   5.132   6.249 -0.3563  1.1145 -0.6638
12859SOL     OW39996   0.921   3.986   3.131 -1.1011  0.4271 -0.2004
12859SOL    HW139997   1.013   4.002   3.154 -0.3637 -3.3992  0.2212
12859SOL    HW239998   0.921   3.981   3.036 -0.7277 -0.1263 -0.1781
12860SOL     OW39999   2.005   7.768   7.110  0.7308 -0.2385 -0.0701
12860SOL    HW140000   1.919   7.800   7.136  1.3342  0.6781  0.8923
12860SOL    HW240001   2.066   7.836   7.139  1.7596 -0.7297 -0.9906
12861SOL     OW40002   5.138   0.503   7.791  0.3820 -0.0394  0.5594
12861SOL    HW140003   5.145   0.598   7.779 -0.0253  0.0518  1.0281
12861SOL    HW240004   5.171   0.466   7.708 -1.1508  0.5485 -0.3538
12862SOL     OW40005   6.365   2.354   1.309 -0.2285 -0.0614 -0.0340
12862SOL    HW140006   6.334   2.381   1.222  0.3501  0.2356 -0.1485
12862SOL    HW240007   6.292   2.304   1.345 -0.6790  0.2590 -0.4805
12863SOL     OW40008   7.369   4.768   0.080  0.1518 -0.0800 -0.7283
12863SOL    HW140009   7.398   4.802   0.165  1.2440  1.1001 -1.5208
12863SOL    HW240010   7.444   4.717   0.049 -0.1728 -0.3540 -1.0586
12864SOL     OW40011   6.778   3.492   6.469  0.1362  0.1913  0.2570
12864SOL    HW140012   6.792   3.471   6.561  2.5436 -0.6006 -0.2391
12864SOL    HW240013   6.683   3.493   6.460 -0.2023  0.9049  2.8605
12865SOL     OW40014   1.586   5.956   2.913  0.6476 -0.0400  0.2608
12865SOL    HW140015   1.577   6.014   2.988  0.8426  0.7188 -0.2844
12865SOL    HW240016   1.676   5.970   2.882 -0.1203  1.4203 -1.4995
12866SOL     OW40017   1.060   5.911   5.493 -0.3680 -0.2502  0.3855
12866SOL    HW140018   0.996   5.840   5.500  0.3150 -0.8149  1.0218
12866SOL    HW240019   1.018   5.975   5.436 -0.8523 -1.3207 -0.4932
12867SOL     OW40020   0.848   3.170   2.651  0.0691 -0.5399  0.1236
12867SOL    HW140021   0.822   3.079   2.640 -1.9738  0.0378 -0.1709
12867SOL    HW240022   0.942   3.171   2.632 -0.2899 -2.2118 -1.9819
12868SOL     OW40023   6.703   2.838   0.850  0.1657  0.8674 -0.2137
12868SOL    HW140024   6.739   2.927   0.849 -0.5018  1.1357 -0.5631
12868SOL    HW240025   6.629   2.841   0.790 -0.4496  0.3239  0.4979
12869SOL     OW40026   4.644   7.807   7.734  0.2967 -0.6647 -0.0814
12869SOL    HW140027   4.615   7.797   7.824 -1.1450  0.1951 -0.4104
12869SOL    HW240028   4.738   7.787   7.736  0.5761  0.5849  1.8342
12870SOL     OW40029   6.440   3.490   4.743 -0.1040 -0.5040 -0.4249
12870SOL    HW140030   6.408   3.464   4.830  0.7375  0.8573  0.3298
12870SOL    HW240031   6.430   3.411   4.690 -1.9744 -0.9597  0.5189
12871SOL     OW40032   1.737   4.794   3.191 -0.4051 -0.7068 -0.2786
12871SOL    HW140033   1.647   4.793   3.226 -0.4308 -0.3863 -0.3350
12871SOL    HW240034   1.726   4.813   3.098 -0.2708 -0.5580 -0.2633
12872SOL     OW40035   0.849   0.990   5.039 -0.0917  0.0828  0.7006
12872SOL    HW140036   0.796   1.040   5.100  2.2460 -0.2589  3.1870
12872SOL    HW240037   0.918   1.051   5.012  0.7466 -0.7096  0.9902
12873SOL     OW40038   7.514   4.401   2.518 -0.1891 -1.0884  0.2577
12873SOL    HW140039   7.558   4.417   2.602 -1.6139 -0.9264  1.0173
12873SOL    HW240040   7.433   4.355   2.542 -1.1041 -0.1764 -0.9074
12874SOL     OW40041   7.242   6.966   5.007 -0.6289 -0.0564 -0.6339
12874SOL    HW140042   7.278   7.030   5.069 -1.3862 -1.5664  1.4944
12874SOL    HW240043   7.290   6.885   5.025  0.4554 -0.1264 -3.4130
12875SOL     OW40044   4.924   0.360   3.808 -0.1515 -0.3986 -0.5834
12875SOL    HW140045   4.871   0.431   3.844  1.6732  0.9213 -0.3831
12875SOL    HW240046   4.871   0.325   3.737 -0.9726  1.3858 -0.9063
12876SOL     OW40047   6.260   3.737   3.571 -0.1154  0.3598 -0.1770
12876SOL    HW140048   6.214   3.653   3.574  0.9575 -0.2147  0.7619
12876SOL    HW240049   6.350   3.716   3.592  0.2373  1.7168 -0.2498
12877SOL     OW40050   4.961   0.896   3.020 -0.3086  0.4881  0.3010
12877SOL    HW140051   4.928   0.855   2.941 -3.3129  1.3326  0.9484
12877SOL    HW240052   5.023   0.963   2.990 -0.6723  0.1471 -1.2465
12878SOL     OW40053   0.008   2.535   7.613  0.6811 -0.0113  0.2301
12878SOL    HW140054   0.002   2.631   7.609  0.9275  0.1131  2.0214
12878SOL    HW240055   0.102   2.517   7.609  0.7329 -0.0629  1.4752
12879SOL     OW40056   7.390   6.622   4.298 -0.1763 -0.2883 -0.3229
12879SOL    HW140057   7.332   6.602   4.371  0.8381  3.0800  1.6391
12879SOL    HW240058   7.378   6.716   4.283  0.9109 -0.5415 -3.4047
12880SOL     OW40059   6.142   3.597   6.193  0.0574  0.1049  0.0541
12880SOL    HW140060   6.093   3.524   6.230  0.8698 -1.4278 -1.7691
12880SOL    HW240061   6.211   3.614   6.258 -1.3008  0.6143  1.4266
12881SOL     OW40062   4.821   5.728   2.503 -0.3790 -0.9498  0.7829
12881SOL    HW140063   4.897   5.670   2.494  0.0548 -0.4257  1.0612
12881SOL    HW240064   4.765   5.705   2.428  0.8362 -0.1844 -0.4116
12882SOL     OW40065   0.252   0.349   7.710  0.2566  0.4672  0.2159
12882SOL    HW140066   0.331   0.299   7.731  0.8445  1.4540  0.3855
12882SOL    HW240067   0.210   0.298   7.640  0.0067 -1.0935  1.4308
12883SOL     OW40068   2.760   5.036   1.569  0.2221 -0.1066  0.0060
12883SOL    HW140069   2.681   5.028   1.622 -1.2729  1.9308 -1.7453
12883SOL    HW240070   2.749   4.972   1.499  0.8835 -0.8702  0.5804
12884SOL     OW40071   4.576   3.301   1.032  0.4486  0.1409 -0.1486
12884SOL    HW140072   4.559   3.394   1.019  1.6164  0.6452  1.5867
12884SOL    HW240073   4.646   3.280   0.970  0.1876  0.4118 -0.5385
12885SOL     OW40074   6.953   5.949   0.798 -0.2919 -0.0674  0.8754
12885SOL    HW140075   6.966   6.030   0.748  1.1237  0.1994  1.6272
12885SOL    HW240076   7.009   5.885   0.754  1.0574  0.1994  2.1613
12886SOL     OW40077   0.013   4.568   1.273 -0.1144  0.2712 -0.0924
12886SOL    HW140078   0.051   4.643   1.228 -0.9667  1.1217  0.5817
12886SOL    HW240079  -0.046   4.606   1.338 -0.0730 -0.9677  0.6949
12887SOL     OW40080   0.468   5.205   3.867  0.1228 -0.1446 -0.0914
12887SOL    HW140081   0.458   5.156   3.948 -0.7715 -1.0088 -0.7083
12887SOL    HW240082   0.533   5.156   3.816  2.7392  1.7921  1.0974
12888SOL     OW40083   3.811   1.806   3.991 -0.2383 -0.6633 -0.1058
12888SOL    HW140084   3.838   1.897   3.981  1.4386 -1.0394  0.5223
12888SOL    HW240085   3.855   1.760   3.919 -0.1243 -1.1306  0.2548
12889SOL     OW40086   0.562   1.543   7.604  0.6892  0.3812  0.2525
12889SOL    HW140087   0.503   1.591   7.546  1.2656  0.8423  0.0399
12889SOL    HW240088   0.527   1.454   7.605 -1.6720  1.2178  2.3489
12890SOL     OW40089   6.153   1.976   1.451  0.3878 -0.3158 -0.2348
12890SOL    HW140090   6.064   1.943   1.451  0.2008  0.0707  1.3580
12890SOL    HW240091   6.205   1.906   1.413 -0.5136 -0.8170 -0.5693
12891SOL     OW40092   0.184   2.124   7.052  0.4421 -0.4290  0.0979
12891SOL    HW140093   0.161   2.143   7.143 -0.6005  1.8023 -0.5552
12891SOL    HW240094   0.166   2.031   7.041 -0.2634 -0.5421  1.9236
12892SOL     OW40095   3.185   1.528   5.283 -0.8065 -0.2784 -0.0054
12892SOL    HW140096   3.153   1.468   5.214 -1.2421  0.2625 -0.2813
12892SOL    HW240097   3.124   1.515   5.355 -1.8504  0.9467 -0.6278
12893SOL     OW40098   4.245   4.054   2.034 -0.2500 -0.3485  0.6951
12893SOL    HW140099   4.181   3.997   1.990  0.0849 -1.7815  1.9641
12893SOL    HW240100   4.217   4.055   2.125  0.5507  0.4359  0.9480
12894SOL     OW40101   5.777   1.076   8.022  0.3318 -0.1641  0.0662
12894SOL    HW140102   5.858   1.117   8.053  0.3470  0.7685 -1.1373
12894SOL    HW240103   5.740   1.033   8.100  1.7304 -0.2000  0.7328
12895SOL     OW40104   3.683   5.118   4.161  0.5276  0.3185 -0.2021
12895SOL    HW140105   3.745   5.049   4.140 -0.1644 -0.2253 -0.5037
12895SOL    HW240106   3.651   5.149   4.076  1.2189  1.3923 -0.0954
12896SOL     OW40107   6.226   3.632   5.544  0.1871  0.1512 -0.2868
12896SOL    HW140108   6.284   3.705   5.564  0.5500 -0.2146  0.0207
12896SOL    HW240109   6.165   3.666   5.479 -0.8456  1.3001  1.2417
12897SOL     OW40110   5.256   1.140   4.319 -0.3141  0.3246 -0.3435
12897SOL    HW140111   5.269   1.048   4.342 -3.2561  0.0461  0.5536
12897SOL    HW240112   5.161   1.154   4.324 -0.1095  3.0830 -1.7896
12898SOL     OW40113   7.812   6.916   3.341  1.1645 -0.2784  0.3414
12898SOL    HW140114   7.775   6.858   3.274 -0.2788  1.7051 -0.6806
12898SOL    HW240115   7.902   6.885   3.351  1.2096 -1.1432 -1.9948
12899SOL     OW40116   5.500   6.856   4.033  0.5352  0.3868  0.4333
12899SOL    HW140117   5.470   6.797   3.964 -0.8422 -0.7802  1.9473
12899SOL    HW240118   5.536   6.931   3.986  0.5980 -0.8060 -1.5451
12900SOL     OW40119   7.339   3.793   0.127 -0.5243 -0.2025 -0.7067
12900SOL    HW140120   7.280   3.837   0.066 -0.0496 -0.3177 -1.2569
12900SOL    HW240121   7.301   3.810   0.214 -1.1509  0.0382 -1.0246
12901SOL     OW40122   5.796   1.050   2.034 -0.7021 -0.3211  0.0003
12901SOL    HW140123   5.741   0.978   2.064 -2.2537  0.1611 -1.4817
12901SOL    HW240124   5.762   1.071   1.947  2.2724 -0.4045 -1.3167
12902SOL     OW40125   5.154   3.234   3.747 -0.2058  0.3422 -0.0278
12902SOL    HW140126   5.203   3.165   3.791 -0.0383  0.0516 -0.6660
12902SOL    HW240127   5.220   3.287   3.703 -0.5074 -1.1003 -2.4188
12903SOL     OW40128   0.829   1.628   7.019 -0.1599 -0.9174  0.9761
12903SOL    HW140129   0.836   1.618   6.924  2.2497  0.2997  0.9463
12903SOL    HW240130   0.900   1.575   7.054  0.4446  0.4359  1.9127
12904SOL     OW40131   0.594   2.407   6.866 -0.3423 -0.0624 -0.6437
12904SOL    HW140132   0.592   2.450   6.951 -0.4560  0.9853 -1.1512
12904SOL    HW240133   0.670   2.446   6.821 -1.5549  1.0661 -1.8201
12905SOL     OW40134   3.359   6.234   5.242  0.0161  0.2673 -0.4788
12905SOL    HW140135   3.336   6.219   5.150  0.2680  1.2881 -0.7225
12905SOL    HW240136   3.346   6.328   5.254 -0.7984  0.0226  0.7593
12906SOL     OW40137   1.470   4.075   3.749 -0.2670 -0.4362 -0.3364
12906SOL    HW140138   1.475   4.098   3.841  2.2207 -0.5481 -0.3891
12906SOL    HW240139   1.561   4.064   3.721 -0.9875 -1.5454 -2.5228
12907SOL     OW40140   0.939   2.247   4.265 -0.0528  0.5743 -0.0905
12907SOL    HW140141   1.011   2.185   4.249  0.9242  1.6837 -0.1537
12907SOL    HW240142   0.861   2.201   4.237  0.5352 -0.9558  0.6785
12908SOL     OW40143   6.192   6.127   1.921  0.2252  0.4276  0.2176
12908SOL    HW140144   6.168   6.219   1.916 -0.5405  0.3272  1.6341
12908SOL    HW240145   6.288   6.127   1.915  0.1782  1.1713 -1.1758
12909SOL     OW40146   2.093   5.254   4.722 -0.0088  0.6330  0.6832
12909SOL    HW140147   2.146   5.288   4.794  1.5310  3.0666 -1.4440
12909SOL    HW240148   2.016   5.311   4.720 -0.5074 -0.0195  0.9502
12910SOL     OW40149   0.674   3.401   0.121 -0.1615 -0.0553  0.0011
12910SOL    HW140150   0.646   3.486   0.155 -2.1828 -1.7351  3.0105
12910SOL    HW240151   0.762   3.389   0.157  0.2419  0.8326 -0.6563
12911SOL     OW40152   4.673   0.353   3.671  0.1499 -0.1256 -0.1989
12911SOL    HW140153   4.635   0.334   3.757  2.3028  1.7053  1.3036
12911SOL    HW240154   4.639   0.439   3.647  0.3947 -0.1438 -0.6330
12912SOL     OW40155   5.487   0.153   1.303 -0.1810 -0.5659  0.2954
12912SOL    HW140156   5.394   0.176   1.308 -0.2641 -0.6390 -0.7555
12912SOL    HW240157   5.488   0.064   1.270  0.2887  0.1695 -1.8263
12913SOL     OW40158   0.235   2.407   4.332 -0.5558 -0.5697  0.4007
12913SOL    HW140159   0.223   2.394   4.238  0.7404 -1.0390  0.2745
12913SOL    HW240160   0.317   2.456   4.339 -0.2908 -1.1171  1.2991
12914SOL     OW40161   4.520   3.145   7.696  0.3500 -0.2933  0.4790
12914SOL    HW140162   4.494   3.182   7.612 -0.3513  0.0358  0.8356
12914SOL    HW240163   4.585   3.207   7.731 -0.3013  0.2487  0.7531
12915SOL     OW40164   1.736   0.044   2.588 -0.7176  0.1201 -0.2343
12915SOL    HW140165   1.777   0.130   2.585 -0.4423  0.0050 -3.1598
12915SOL    HW240166   1.647   0.058   2.555 -0.5244 -0.7371 -1.1883
12916SOL     OW40167   2.735   2.544   5.925 -0.6462 -0.2158 -0.4026
12916SOL    HW140168   2.762   2.629   5.890 -1.9663  0.6183  0.5206
12916SOL    HW240169   2.809   2.486   5.906  1.7360  1.8581  1.7503
12917SOL     OW40170   6.457   1.682   2.329 -0.0442 -0.2580  0.7714
12917SOL    HW140171   6.449   1.703   2.422  1.4850  0.3008  0.7961
12917SOL    HW240172   6.409   1.600   2.319 -0.5085 -0.1584  1.9723
12918SOL     OW40173   0.072   3.839   4.788  0.2305  0.4395  0.4489
12918SOL    HW140174  -0.004   3.896   4.789  0.9809  1.4638  0.3743
12918SOL    HW240175   0.130   3.875   4.854  1.0863  0.2748 -0.1927
12919SOL     OW40176   3.729   3.893   4.316 -0.1008  0.1584 -0.0270
12919SOL    HW140177   3.687   3.809   4.331 -0.9023  0.6529  0.5651
12919SOL    HW240178   3.742   3.897   4.222  1.8519 -1.5095  0.1057
12920SOL     OW40179   8.011   0.618   4.026  0.2027 -0.2885 -0.6329
12920SOL    HW140180   7.955   0.696   4.026  2.6132  1.5555 -0.8423
12920SOL    HW240181   8.043   0.611   4.116  1.1331 -0.1280 -0.9369
12921SOL     OW40182   2.666   1.127   1.059 -0.0585  0.2213 -0.5043
12921SOL    HW140183   2.722   1.147   1.133 -0.5337  0.8738 -0.3110
12921SOL    HW240184   2.583   1.169   1.080 -1.1435 -2.0149 -0.0657
12922SOL     OW40185   3.897   2.030   7.643  0.1207  0.4411 -0.9947
12922SOL    HW140186   3.804   2.013   7.657  0.5094 -1.9655 -0.8407
12922SOL    HW240187   3.906   2.034   7.548 -0.1845  1.1650 -1.0025
12923SOL     OW40188   2.112   4.193   3.078  0.3540 -0.3287 -0.0639
12923SOL    HW140189   2.075   4.164   2.994  1.5441 -1.1755 -0.3238
12923SOL    HW240190   2.173   4.263   3.054  0.7185 -0.5926  0.0777
12924SOL     OW40191   2.058   6.582   6.380  0.1543 -0.3119  0.1031
12924SOL    HW140192   2.011   6.566   6.299  1.1081 -0.2027 -0.4919
12924SOL    HW240193   2.072   6.495   6.417 -1.7170 -0.2686  1.0215
12925SOL     OW40194   3.012   7.663   5.256 -0.7949  0.3069 -0.0508
12925SOL    HW140195   3.058   7.734   5.213 -0.6587 -0.0676 -0.5262
12925SOL    HW240196   2.959   7.706   5.323 -0.5244  0.8287 -0.1669
12926SOL     OW40197   1.504   1.208   5.484  0.4304  0.6742  0.1761
12926SOL    HW140198   1.520   1.118   5.513  1.2411  1.1808  1.3863
12926SOL    HW240199   1.570   1.223   5.416 -1.1174 -0.3306 -1.6717
12927SOL     OW40200   2.203   6.612   0.584  0.2050  0.1130  0.0906
12927SOL    HW140201   2.173   6.685   0.638 -0.5171  0.2494 -0.4714
12927SOL    HW240202   2.171   6.634   0.496  1.3258 -0.1183 -0.3803
12928SOL     OW40203   7.752   4.770   0.331  0.2103 -0.7897  0.1710
12928SOL    HW140204   7.777   4.862   0.335  1.1345 -0.9866 -0.6752
12928SOL    HW240205   7.663   4.771   0.296  0.6533 -0.2599 -0.9918
12929SOL     OW40206   4.507   4.542   4.148 -0.2998 -0.1997  0.1352
12929SOL    HW140207   4.479   4.467   4.200 -0.5085  0.1329  0.5132
12929SOL    HW240208   4.466   4.617   4.190  3.7690  0.8255  2.8822
12930SOL     OW40209   3.333   6.227   2.512 -0.1732 -0.4405 -0.2284
12930SOL    HW140210   3.422   6.263   2.509 -0.0806 -0.5679  0.6878
12930SOL    HW240211   3.295   6.248   2.427  0.5506  0.0924 -0.4236
12931SOL     OW40212   0.756   1.745   2.606 -0.4259  0.1273 -0.0700
12931SOL    HW140213   0.677   1.747   2.661 -0.0636  0.7235  0.4444
12931SOL    HW240214   0.778   1.652   2.598 -0.7833  0.0014  0.3606
12932SOL     OW40215   2.878   2.676   6.369  0.1062  0.5175  0.3664
12932SOL    HW140216   2.836   2.716   6.445 -0.7264  2.5031 -1.0434
12932SOL    HW240217   2.807   2.664   6.306  1.3036  2.4652 -1.4748
12933SOL     OW40218   7.988   5.955   7.687 -0.2431  0.0039  0.3998
12933SOL    HW140219   8.016   5.922   7.601 -0.4871 -3.3528  1.4485
12933SOL    HW240220   8.066   5.944   7.742 -0.4760  0.8658  0.9030
12934SOL     OW40221   5.612   3.026   3.251 -0.1047  0.3013  0.0682
12934SOL    HW140222   5.584   3.117   3.259 -1.0067  0.0587 -0.1757
12934SOL    HW240223   5.537   2.981   3.211 -0.0702 -0.7376  1.1042
12935SOL     OW40224   1.335   4.172   7.814 -1.0345  0.0530 -0.5604
12935SOL    HW140225   1.257   4.185   7.869 -0.0177  2.8935  0.4056
12935SOL    HW240226   1.391   4.114   7.864 -0.4572  1.9948  1.1749
12936SOL     OW40227   2.922   6.119   7.780  0.4986 -0.0596 -0.8799
12936SOL    HW140228   2.883   6.199   7.743  1.6434  1.0796  0.3086
12936SOL    HW240229   2.957   6.145   7.865  0.9747 -1.8218 -0.4808
12937SOL     OW40230   0.166   4.843   3.416  0.9278  0.0097  0.1757
12937SOL    HW140231   0.244   4.856   3.363  2.8303  0.3153  2.8374
12937SOL    HW240232   0.185   4.765   3.468  0.2652  1.0916  2.1473
12938SOL     OW40233   1.424   0.977   0.252  0.6417  0.3526  0.1889
12938SOL    HW140234   1.387   0.938   0.331  1.2392  0.2910  0.4436
12938SOL    HW240235   1.460   0.903   0.203  0.5458  0.4278  0.0004
12939SOL     OW40236   0.992   2.403   2.158  0.0039  0.1319 -0.1428
12939SOL    HW140237   1.057   2.402   2.088  0.2150  1.3282  0.0182
12939SOL    HW240238   0.911   2.373   2.116  0.0880  0.9953 -0.9422
12940SOL     OW40239   3.654   1.321   1.220 -0.1498  0.2141  0.1767
12940SOL    HW140240   3.617   1.237   1.195  1.4732 -0.1918 -1.0015
12940SOL    HW240241   3.643   1.325   1.315 -0.9537 -0.9594  0.1535
12941SOL     OW40242   4.921   4.239   5.925  0.2215 -0.4092  0.0986
12941SOL    HW140243   4.967   4.282   5.852  0.8279 -1.6779 -0.2849
12941SOL    HW240244   4.833   4.278   5.923  0.0368 -0.8272 -1.6863
12942SOL     OW40245   2.689   5.156   0.906 -0.2676 -0.2148 -0.7000
12942SOL    HW140246   2.690   5.111   0.821  1.4181  0.6512 -1.1634
12942SOL    HW240247   2.639   5.236   0.890 -0.2488 -0.2176 -0.7738
12943SOL     OW40248   3.437   4.063   3.255  0.2501 -0.2205 -0.1209
12943SOL    HW140249   3.345   4.052   3.229 -0.5301  0.0566  2.2520
12943SOL    HW240250   3.469   3.974   3.268  0.0330 -0.2995 -0.1134
12944SOL     OW40251   2.410   1.673   5.218  0.1631 -0.3469 -0.4305
12944SOL    HW140252   2.341   1.611   5.193 -0.7860  0.9224 -1.1163
12944SOL    HW240253   2.448   1.636   5.298  0.3436 -2.3161 -1.3658
12945SOL     OW40254   6.175   2.794   6.570 -0.0795 -0.2739  0.3767
12945SOL    HW140255   6.168   2.834   6.657  1.0927  0.1978  0.2745
12945SOL    HW240256   6.220   2.860   6.518 -0.6829 -0.5972 -0.5718
12946SOL     OW40257   3.592   4.337   6.524 -0.2894 -0.5783  0.1796
12946SOL    HW140258   3.644   4.416   6.538 -0.0744 -0.9233  1.4731
12946SOL    HW240259   3.572   4.337   6.431  1.5331 -0.1189 -0.2457
12947SOL     OW40260   5.734   0.529   1.011  0.3002 -0.3020 -0.5301
12947SOL    HW140261   5.692   0.588   0.949  0.2972 -0.6983 -0.9132
12947SOL    HW240262   5.662   0.493   1.062  0.3671  0.5386  0.1604
12948SOL     OW40263   6.878   7.771   7.932  0.6352  0.1819 -0.3713
12948SOL    HW140264   6.963   7.814   7.931  0.6929  0.3998  2.6911
12948SOL    HW240265   6.836   7.798   7.851  2.8008  1.4666 -1.1454
12949SOL     OW40266   5.365   0.636   5.353 -0.5461 -0.0368  0.3222
12949SOL    HW140267   5.292   0.581   5.384 -0.0518 -0.7430  0.2572
12949SOL    HW240268   5.400   0.588   5.278 -0.8888  0.9890 -0.5178
12950SOL     OW40269   3.646   6.869   2.403 -0.0351 -0.0364  0.2425
12950SOL    HW140270   3.631   6.809   2.330 -0.4436  0.0253  0.2740
12950SOL    HW240271   3.710   6.931   2.370 -1.2777  0.8620 -0.5762
12951SOL     OW40272   4.647   0.492   2.903 -0.3367  0.7103  0.4573
12951SOL    HW140273   4.605   0.515   2.986  0.4529 -1.7628  1.6246
12951SOL    HW240274   4.741   0.493   2.922 -0.1582 -0.3503 -0.2530
12952SOL     OW40275   0.640   1.166   7.638  0.6048 -0.3460 -0.1334
12952SOL    HW140276   0.551   1.187   7.608  0.4926 -1.0434 -0.3262
12952SOL    HW240277   0.664   1.238   7.696  0.1380  0.1447 -0.5396
12953SOL     OW40278   1.512   2.592   1.810 -0.0167 -0.1837 -0.3218
12953SOL    HW140279   1.471   2.512   1.777 -0.8750  0.8884 -1.9855
12953SOL    HW240280   1.536   2.571   1.900 -0.0110 -2.3768 -0.7766
12954SOL     OW40281   5.386   5.812   1.554  0.4946 -0.0083  0.0354
12954SOL    HW140282   5.296   5.839   1.572 -0.3152 -0.7214 -2.5100
12954SOL    HW240283   5.391   5.722   1.586  0.2726  0.0069  0.1135
12955SOL     OW40284   1.231   4.750   2.834 -0.0411  0.0198 -0.2943
12955SOL    HW140285   1.172   4.678   2.811  1.2861 -0.4886 -2.3955
12955SOL    HW240286   1.311   4.707   2.865 -0.5488  0.6980  2.1829
12956SOL     OW40287   0.331   3.240   2.815  0.1856  0.1083  0.2615
12956SOL    HW140288   0.394   3.170   2.826 -0.1764 -0.2999 -0.2229
12956SOL    HW240289   0.333   3.261   2.721 -1.6882 -1.1693 -0.1305
12957SOL     OW40290   7.217   6.056   2.306  0.6205 -0.3578  0.3054
12957SOL    HW140291   7.145   6.023   2.359 -1.1442 -0.2870 -1.9143
12957SOL    HW240292   7.296   6.027   2.352 -0.7692 -0.0933  3.0174
12958SOL     OW40293   0.620   0.219   5.047 -0.0331  0.3344 -0.3254
12958SOL    HW140294   0.669   0.301   5.048 -1.5355  1.2733 -0.9514
12958SOL    HW240295   0.575   0.219   4.963  0.5417 -1.5199 -0.6745
12959SOL     OW40296   6.995   1.341   2.458  0.3131  0.0925 -0.1676
12959SOL    HW140297   7.041   1.286   2.521 -0.0864 -0.0747 -0.0191
12959SOL    HW240298   7.052   1.418   2.446  0.1113  0.4099  0.8512
12960SOL     OW40299   7.784   4.550   7.830  0.2609 -0.3346  0.5866
12960SOL    HW140300   7.723   4.567   7.758 -0.9885 -1.7418  1.2436
12960SOL    HW240301   7.848   4.489   7.793 -0.7751 -1.5973  0.8208
12961SOL     OW40302   2.231   6.871   2.075 -0.4765 -0.3631 -0.7394
12961SOL    HW140303   2.160   6.925   2.110  0.3341  1.1206 -1.2812
12961SOL    HW240304   2.311   6.913   2.108  0.1697 -2.0012 -0.1472
12962SOL     OW40305   7.171   3.890   4.781  0.1433  0.4645 -0.1194
12962SOL    HW140306   7.131   3.969   4.817 -0.5126  0.5053 -0.9050
12962SOL    HW240307   7.251   3.922   4.738  0.1034  0.6439 -0.0617
12963SOL     OW40308   7.987   4.732   0.646 -0.6771  0.1669  0.7463
12963SOL    HW140309   8.058   4.778   0.601 -0.8771  0.1348  0.3957
12963SOL    HW240310   7.971   4.784   0.725 -1.0484  0.8372  0.2454
12964SOL     OW40311   6.149   1.843   5.364 -0.3105  0.1482  0.0989
12964SOL    HW140312   6.204   1.920   5.373 -0.3978  0.2715 -0.3717
12964SOL    HW240313   6.068   1.865   5.410  0.2630 -0.2764  1.3471
12965SOL     OW40314   3.443   5.492   3.442  0.6024  0.2018 -0.2176
12965SOL    HW140315   3.462   5.409   3.398 -0.0623 -0.8191  1.3617
12965SOL    HW240316   3.349   5.490   3.458  0.7035  0.9089  0.5392
12966SOL     OW40317   3.394   1.121   5.196 -0.2498  0.2900 -0.2740
12966SOL    HW140318   3.345   1.126   5.278 -0.2650  1.3891 -0.3385
12966SOL    HW240319   3.389   1.029   5.171 -0.1689 -0.0793  1.0001
12967SOL     OW40320   1.318   7.098   5.155 -0.1277  0.5971  0.4317
12967SOL    HW140321   1.358   7.152   5.223 -1.4598  1.8369  0.2757
12967SOL    HW240322   1.224   7.097   5.177 -0.4620  0.3304 -0.9185
12968SOL     OW40323   4.553   1.975   6.449 -0.0514 -0.3009 -0.3184
12968SOL    HW140324   4.530   1.913   6.380  0.0647 -0.1636 -0.4800
12968SOL    HW240325   4.558   2.060   6.405 -0.2954 -0.1609 -0.0808
12969SOL     OW40326   3.501   0.458   1.663  0.4693  0.0321 -0.4443
12969SOL    HW140327   3.423   0.505   1.631 -0.0109 -0.1481  0.4449
12969SOL    HW240328   3.478   0.366   1.654  2.0213 -0.1646 -3.7406
12970SOL     OW40329   5.668   1.807   4.951  0.4828  0.6230  0.1685
12970SOL    HW140330   5.741   1.846   4.903  1.0293 -1.6823 -0.9828
12970SOL    HW240331   5.591   1.827   4.899  0.8925 -0.6347 -0.9724
12971SOL     OW40332   2.447   6.709   3.159  0.2165 -0.7617  0.7047
12971SOL    HW140333   2.426   6.655   3.083  4.0511  1.7473 -2.5099
12971SOL    HW240334   2.485   6.647   3.222  1.8169 -2.3147 -1.6320
12972SOL     OW40335   6.696   4.388   0.270 -0.4403  0.2790 -0.2418
12972SOL    HW140336   6.644   4.309   0.287  0.1530  0.0718  0.6768
12972SOL    HW240337   6.631   4.458   0.260 -0.9038  0.1628  1.6205
12973SOL     OW40338   7.658   6.440   1.684 -0.4137  0.1965  0.0458
12973SOL    HW140339   7.721   6.368   1.675 -0.5370 -0.1659  1.7387
12973SOL    HW240340   7.573   6.396   1.692 -0.9052  0.6711 -1.9417
12974SOL     OW40341   4.496   7.274   0.177 -0.1020  0.2664  0.3378
12974SOL    HW140342   4.514   7.368   0.179  0.8737  0.1248 -0.7468
12974SOL    HW240343   4.401   7.268   0.175 -0.2085  1.3647 -2.8272
12975SOL     OW40344   4.596   5.924   4.305  0.2658 -0.8730 -0.1607
12975SOL    HW140345   4.540   5.860   4.263 -2.7516  1.1032  0.5724
12975SOL    HW240346   4.602   5.996   4.243 -2.7445  1.2882  1.7796
12976SOL     OW40347   4.683   4.243   4.733  0.2988  0.0168 -0.7344
12976SOL    HW140348   4.657   4.262   4.643 -1.6161 -1.4934 -0.5616
12976SOL    HW240349   4.610   4.194   4.769  1.1647  0.3190  1.5746
12977SOL     OW40350   1.329   7.838   5.922 -0.4967  0.0043  0.6757
12977SOL    HW140351   1.264   7.769   5.933 -1.4285  0.9978  1.8017
12977SOL    HW240352   1.285   7.903   5.867  0.1265 -0.0024  0.1626
12978SOL     OW40353   0.348   7.469   3.343  0.2223 -0.1151 -0.1142
12978SOL    HW140354   0.386   7.399   3.290  1.1397  1.6063 -1.8681
12978SOL    HW240355   0.356   7.548   3.289 -2.8840  0.9855  0.7795
12979SOL     OW40356   2.599   4.175   0.336  0.2737 -0.2959 -0.7279
12979SOL    HW140357   2.543   4.251   0.322  3.1626  2.4092  0.9501
12979SOL    HW240358   2.642   4.162   0.251 -1.5406 -1.3260 -1.5435
12980SOL     OW40359   2.528   4.125   2.386 -0.2626 -0.3619 -0.2213
12980SOL    HW140360   2.522   4.121   2.482  0.2297 -5.3315 -0.1547
12980SOL    HW240361   2.443   4.093   2.355 -0.4336  1.2312 -1.5262
12981SOL     OW40362   5.435   7.658   2.581  0.1365 -0.4859 -0.0821
12981SOL    HW140363   5.505   7.689   2.524  2.1101 -1.5930  1.6118
12981SOL    HW240364   5.421   7.567   2.555 -0.0599 -0.5224  0.1480
12982SOL     OW40365   5.506   7.511   6.046  0.0406  0.5148 -0.6037
12982SOL    HW140366   5.430   7.492   6.101 -1.2237  0.4101 -2.3026
12982SOL    HW240367   5.555   7.576   6.096 -0.4449 -0.3734  1.1353
12983SOL     OW40368   0.837   6.827   0.840 -0.3641  0.4266  0.1713
12983SOL    HW140369   0.915   6.774   0.854 -1.3509 -0.6051  2.3245
12983SOL    HW240370   0.787   6.818   0.921 -2.1735  1.9964 -0.6762
12984SOL     OW40371   1.716   5.304   7.143  0.2887  0.5304 -0.1742
12984SOL    HW140372   1.796   5.318   7.194 -0.0911  0.2405  0.5189
12984SOL    HW240373   1.646   5.343   7.196 -0.1562 -0.0499 -0.3193
12985SOL     OW40374   0.684   0.209   3.763  0.1822  0.2636  0.6200
12985SOL    HW140375   0.751   0.273   3.742 -0.5036  0.2128 -1.9835
12985SOL    HW240376   0.733   0.134   3.798  1.3325  0.7392  0.0740
12986SOL     OW40377   2.165   0.305   5.265  0.0298  0.0171  0.8512
12986SOL    HW140378   2.224   0.371   5.229  0.5701 -0.8435  0.1189
12986SOL    HW240379   2.152   0.243   5.194 -1.7215  0.1377  1.0193
12987SOL     OW40380   4.965   4.517   0.244  0.9739 -0.1540 -0.2426
12987SOL    HW140381   4.935   4.462   0.172  1.4554  0.7755 -1.1723
12987SOL    HW240382   5.045   4.474   0.275  0.9086 -0.4125 -0.4284
12988SOL     OW40383   1.666   0.936   8.002 -0.0398 -0.3986 -0.1825
12988SOL    HW140384   1.684   0.881   7.926 -0.1432  1.3143 -1.5072
12988SOL    HW240385   1.752   0.952   8.041 -0.1503 -2.6875  1.1452
12989SOL     OW40386   3.239   6.045   0.794 -0.0300  0.1416  0.8184
12989SOL    HW140387   3.220   5.951   0.798  1.4350 -0.2918 -1.1084
12989SOL    HW240388   3.334   6.051   0.789 -0.1550  1.5992 -1.0103
12990SOL     OW40389   7.256   0.689   3.121  0.3396  0.0212 -0.0469
12990SOL    HW140390   7.194   0.675   3.193 -0.6641 -0.5372 -0.9880
12990SOL    HW240391   7.330   0.633   3.142  0.0332 -0.1769  0.5284
12991SOL     OW40392   3.773   6.125   3.843  0.1643 -0.6230  0.0266
12991SOL    HW140393   3.714   6.050   3.850  0.4707 -1.0030 -1.1549
12991SOL    HW240394   3.719   6.200   3.868 -0.9840 -0.9105 -1.4018
12992SOL     OW40395   2.633   0.566   6.117  0.1323  0.9657 -0.5203
12992SOL    HW140396   2.651   0.486   6.068 -1.4294  0.5136 -0.4159
12992SOL    HW240397   2.638   0.635   6.050  1.9080  0.8731 -0.5282
12993SOL     OW40398   1.395   4.656   5.337  0.0856  0.0102  0.5498
12993SOL    HW140399   1.351   4.726   5.289 -1.0388  1.7380  3.7354
12993SOL    HW240400   1.468   4.701   5.381  1.8320 -1.7342 -0.4126
12994SOL     OW40401   5.482   6.282   2.016  0.1164  0.0364 -0.2046
12994SOL    HW140402   5.570   6.252   2.039  1.1087  2.2194 -0.8984
12994SOL    HW240403   5.465   6.244   1.930  0.2614 -0.5910  0.0384
12995SOL     OW40404   2.241   1.370   4.511 -0.2491 -0.2029  0.5795
12995SOL    HW140405   2.317   1.312   4.517  0.8084  1.2348  2.6252
12995SOL    HW240406   2.279   1.458   4.505 -1.7566  0.4856  0.7309
12996SOL     OW40407   3.910   3.508   8.000  0.6126 -0.3251 -0.3817
12996SOL    HW140408   3.853   3.575   7.962  1.0972 -0.9163 -2.2475
12996SOL    HW240409   3.997   3.548   7.999  0.7780 -0.6865 -0.7841
12997SOL     OW40410   5.647   5.212   0.723  0.0174  0.0779 -0.3197
12997SOL    HW140411   5.598   5.285   0.685 -0.6062  0.8137  1.7537
12997SOL    HW240412   5.708   5.185   0.653 -0.7517  1.5965 -1.6478
12998SOL     OW40413   1.786   1.835   1.777 -0.0430  0.0276 -0.5561
12998SOL    HW140414   1.694   1.811   1.773  0.5469 -2.3218 -1.4437
12998SOL    HW240415   1.820   1.819   1.689  0.9099  2.3996 -0.7008
12999SOL     OW40416   7.830   7.074   6.517  0.1078  0.0924  0.4598
12999SOL    HW140417   7.921   7.084   6.490  0.4353  1.2361  1.8424
12999SOL    HW240418   7.816   6.979   6.523  1.3365 -0.0897  0.6363
13000SOL     OW40419   5.984   4.085   5.746  0.0849  0.6454 -0.2901
13000SOL    HW140420   6.078   4.072   5.732  0.1418  0.6013  0.1369
13000SOL    HW240421   5.978   4.158   5.807 -0.1169 -0.2193  0.7471
13001SOL     OW40422   3.756   3.455   4.215 -0.5503  0.3195  1.2509
13001SOL    HW140423   3.819   3.405   4.265  0.0005 -1.2399 -0.8416
13001SOL    HW240424   3.806   3.492   4.142 -1.6743  0.6564  0.6095
13002SOL     OW40425   7.860   7.974   4.451 -0.1700  0.4043  0.5856
13002SOL    HW140426   7.901   7.963   4.537 -0.0658  2.6565  0.8797
13002SOL    HW240427   7.922   8.025   4.400 -1.3477  1.4256  0.1010
13003SOL     OW40428   7.131   2.974   2.245  0.5432 -0.1078  0.0708
13003SOL    HW140429   7.211   2.930   2.219  0.6458  0.9252 -1.4416
13003SOL    HW240430   7.060   2.916   2.215  0.5899 -2.0776  3.2004
13004SOL     OW40431   7.238   2.814   3.416  0.1837 -0.0132  0.0789
13004SOL    HW140432   7.328   2.818   3.384  0.7196 -2.5451  1.0424
13004SOL    HW240433   7.193   2.756   3.354 -0.3502 -0.0787  0.5168
13005SOL     OW40434   4.895   7.456   3.719 -0.2769 -0.6686  0.0097
13005SOL    HW140435   4.957   7.423   3.654  0.1159  0.3762 -0.1666
13005SOL    HW240436   4.811   7.459   3.672  0.1979  1.0735 -0.8334
13006SOL     OW40437   1.775   0.538   4.393  0.0761  0.6828  0.0945
13006SOL    HW140438   1.713   0.611   4.385  0.8410  1.4070  0.6747
13006SOL    HW240439   1.727   0.472   4.442 -0.3069  1.1749  0.3984
13007SOL     OW40440   1.966   0.641   5.369  0.7501  0.0287 -0.1629
13007SOL    HW140441   1.927   0.687   5.295  0.2997  3.9571  2.2006
13007SOL    HW240442   2.057   0.673   5.372  1.0796 -0.9048  0.3807
13008SOL     OW40443   4.137   3.931   7.652  0.1885 -0.4164  0.3847
13008SOL    HW140444   4.060   3.982   7.677 -0.6831 -2.2649  1.6762
13008SOL    HW240445   4.103   3.850   7.617  1.5516 -0.1248 -1.7939
13009SOL     OW40446   7.195   4.058   2.830 -0.4733 -0.1740 -0.6306
13009SOL    HW140447   7.235   3.971   2.837  0.4637  0.2958  0.1336
13009SOL    HW240448   7.103   4.040   2.811 -0.4183 -1.3586  0.0891
13010SOL     OW40449   5.785   0.253   7.637 -0.1368 -0.0289 -0.1583
13010SOL    HW140450   5.852   0.321   7.644  0.5368 -0.8288  2.0759
13010SOL    HW240451   5.774   0.221   7.726 -0.3224 -2.9611 -1.1358
13011SOL     OW40452   2.558   0.080   3.258 -0.2147  0.6308  0.0121
13011SOL    HW140453   2.606   0.148   3.306  0.0860 -0.7306  1.7508
13011SOL    HW240454   2.596  -0.002   3.288  0.0232 -0.3454 -2.6736
13012SOL     OW40455   4.190   1.986   4.357 -0.1851  0.3534 -0.5526
13012SOL    HW140456   4.193   1.932   4.278  0.1956 -0.5790  0.0779
13012SOL    HW240457   4.098   1.985   4.383 -0.1113 -0.4046 -0.2842
13013SOL     OW40458   5.853   2.817   4.099  0.6593  0.1689  0.4605
13013SOL    HW140459   5.796   2.777   4.164 -0.9582  1.1609 -0.2859
13013SOL    HW240460   5.815   2.792   4.015  0.3601  2.1565 -0.0346
13014SOL     OW40461   7.862   3.070   4.661 -0.1394  0.0602  0.3054
13014SOL    HW140462   7.844   3.021   4.741 -0.6474 -0.4238 -0.1009
13014SOL    HW240463   7.944   3.116   4.679  0.1142 -0.5914  0.8468
13015SOL     OW40464   5.567   0.575   3.211 -0.5097  0.6184 -0.1167
13015SOL    HW140465   5.472   0.586   3.211 -0.4527  1.1965  0.6282
13015SOL    HW240466   5.589   0.555   3.120 -0.9833  3.6981 -1.0122
13016SOL     OW40467   1.254   5.350   0.610  0.1809 -0.4281 -0.0176
13016SOL    HW140468   1.326   5.364   0.671 -0.3507  1.4153  0.2319
13016SOL    HW240469   1.177   5.337   0.665  0.0695 -0.9749 -0.2929
13017SOL     OW40470   3.030   2.419   2.890 -0.3804 -0.1950  0.2073
13017SOL    HW140471   3.020   2.324   2.893  1.4873 -0.3903  1.7992
13017SOL    HW240472   2.961   2.452   2.947  0.3555 -0.7483  1.4447
13018SOL     OW40473   4.366   4.935   2.960 -0.1821  0.0314  1.6575
13018SOL    HW140474   4.330   4.989   3.030 -1.5486 -2.0816  2.7027
13018SOL    HW240475   4.293   4.878   2.934  0.9468 -0.7850  0.0817
13019SOL     OW40476   3.429   3.031   1.790 -0.4505 -0.1051  0.7670
13019SOL    HW140477   3.337   3.056   1.781 -0.9100 -2.1387 -1.2843
13019SOL    HW240478   3.437   2.951   1.737  2.7688  0.6110 -0.0279
13020SOL     OW40479   1.653   3.063   7.586 -0.2485 -0.0047  0.2349
13020SOL    HW140480   1.569   3.019   7.600 -1.3823  1.7694 -0.6737
13020SOL    HW240481   1.708   3.034   7.659 -0.9448 -2.7563 -0.2156
13021SOL     OW40482   6.519   6.744   5.379  0.4541  0.1322  0.2131
13021SOL    HW140483   6.557   6.799   5.448 -0.8507  2.9909 -1.1602
13021SOL    HW240484   6.587   6.681   5.359  1.8326  0.7941  2.3741
13022SOL     OW40485   6.666   2.454   2.197  0.2185 -0.0294 -0.4602
13022SOL    HW140486   6.587   2.410   2.165  0.1569 -0.7439  0.6057
13022SOL    HW240487   6.738   2.406   2.156  0.1407 -0.8991  0.3836
13023SOL     OW40488   2.448   1.008   7.010  0.3799 -0.5317 -0.0977
13023SOL    HW140489   2.426   0.995   6.918  0.6958  0.9299 -0.3969
13023SOL    HW240490   2.543   1.005   7.013  0.3771 -3.5496  0.6934
13024SOL     OW40491   5.855   2.613   3.667  0.1108  0.7843  0.0907
13024SOL    HW140492   5.850   2.604   3.571  0.3027 -1.8128  0.2480
13024SOL    HW240493   5.886   2.528   3.697  1.2192  1.9145  2.4214
13025SOL     OW40494   6.558   1.537   1.935  0.2693 -0.3211  0.7835
13025SOL    HW140495   6.498   1.510   1.865  1.6202 -3.1427  0.5926
13025SOL    HW240496   6.543   1.473   2.005 -0.0769  1.6335  2.6070
13026SOL     OW40497   6.630   2.075   7.945 -0.0986 -0.3546  0.1647
13026SOL    HW140498   6.536   2.090   7.948 -0.3333 -1.8100  1.7931
13026SOL    HW240499   6.650   2.062   7.853 -0.9420  2.8288 -0.5707
13027SOL     OW40500   0.154   0.986   2.371 -0.5094 -0.5869 -0.1940
13027SOL    HW140501   0.065   0.999   2.403  0.2551 -0.9677  2.3239
13027SOL    HW240502   0.200   1.066   2.397  0.6007 -1.7083  1.5559
13028SOL     OW40503   5.727   1.661   8.027  0.6628  0.2404  0.6921
13028SOL    HW140504   5.634   1.672   8.043  0.9502  0.2989  2.4802
13028SOL    HW240505   5.747   1.572   8.058  1.1795  0.1551  0.1455
13029SOL     OW40506   4.470   4.225   6.394  0.2431  0.2405 -0.0793
13029SOL    HW140507   4.425   4.141   6.383  0.3588  0.2394 -0.5549
13029SOL    HW240508   4.403   4.283   6.432 -0.4451  0.4947 -1.6340
13030SOL     OW40509   0.373   1.974   5.580 -0.0860 -0.3977  0.0403
13030SOL    HW140510   0.389   2.060   5.618 -0.3302  0.3686 -1.5260
13030SOL    HW240511   0.431   1.915   5.629  0.0018  0.6136  1.2116
13031SOL     OW40512   4.086   2.941   1.669 -0.3579  0.7163  0.7939
13031SOL    HW140513   4.026   2.867   1.677  0.2209  0.2045  0.5166
13031SOL    HW240514   4.030   3.013   1.639 -0.3382 -0.6188 -3.0736
13032SOL     OW40515   3.414   7.987   3.875  0.2951 -0.1533 -0.3081
13032SOL    HW140516   3.504   7.977   3.905  0.4266  1.9601  0.1510
13032SOL    HW240517   3.419   7.972   3.780  0.6702 -2.3558  0.0138
13033SOL     OW40518   5.582   6.092   7.293 -0.4095 -0.2110  0.3670
13033SOL    HW140519   5.542   6.178   7.307 -2.6768 -1.1361 -0.0262
13033SOL    HW240520   5.521   6.030   7.334  2.2132 -1.5374  2.5422
13034SOL     OW40521   5.926   6.430   0.545 -0.2266  0.1912  0.0178
13034SOL    HW140522   5.999   6.410   0.604  1.1013 -0.2448 -1.6751
13034SOL    HW240523   5.954   6.509   0.498 -0.4829 -0.3998 -1.1685
13035SOL     OW40524   0.344   0.919   5.289  0.6351 -0.3684  0.1556
13035SOL    HW140525   0.322   0.879   5.205  1.7321 -0.5412 -0.0649
13035SOL    HW240526   0.436   0.896   5.304  0.8379  0.7358  0.7778
13036SOL     OW40527   2.615   1.952   3.252 -1.0020 -0.0187  0.5357
13036SOL    HW140528   2.650   2.041   3.254 -0.0056 -0.3982  0.3201
13036SOL    HW240529   2.520   1.964   3.259 -0.7538  0.9141  4.1861
13037SOL     OW40530   2.252   1.850   4.586 -0.0851 -0.6365  0.0519
13037SOL    HW140531   2.216   1.907   4.653 -0.4064  0.0442 -0.6804
13037SOL    HW240532   2.334   1.818   4.623  0.2785  0.5791  0.3511
13038SOL     OW40533   0.779   7.046   7.150  0.6279  0.1156 -0.2129
13038SOL    HW140534   0.746   7.047   7.240  1.0612 -0.1045 -0.0469
13038SOL    HW240535   0.748   6.963   7.114 -0.8575  0.8904 -0.7767
13039SOL     OW40536   7.488   5.448   2.247 -0.0071  0.1213 -0.1529
13039SOL    HW140537   7.419   5.414   2.190 -0.4888  0.0157  0.4909
13039SOL    HW240538   7.482   5.396   2.327  1.7484 -0.8769 -0.6121
13040SOL     OW40539   4.798   5.001   3.745 -0.6041 -0.2184 -0.3814
13040SOL    HW140540   4.784   4.915   3.785  1.8494 -1.1354 -1.3538
13040SOL    HW240541   4.879   4.992   3.695 -0.4821  2.5653 -0.8351
13041SOL     OW40542   3.743   0.542   1.296  0.0891 -0.1023 -0.1795
13041SOL    HW140543   3.750   0.451   1.323 -0.4948 -0.5989 -1.6155
13041SOL    HW240544   3.817   0.554   1.235 -0.4907  0.0411 -0.8683
13042SOL     OW40545   2.228   6.119   5.419  0.0990  0.5655  0.1492
13042SOL    HW140546   2.278   6.107   5.500 -0.3149 -1.8452  0.1265
13042SOL    HW240547   2.226   6.032   5.379 -0.5092  1.4870 -2.0103
13043SOL     OW40548   1.534   5.505   6.767  0.7470 -0.0261  0.1155
13043SOL    HW140549   1.447   5.468   6.778  1.5920 -1.6578  1.7206
13043SOL    HW240550   1.519   5.584   6.714 -1.6655 -0.2901  0.2764
13044SOL     OW40551   1.612   0.036   6.758 -0.0844 -0.1505 -0.1928
13044SOL    HW140552   1.636   0.071   6.672  0.4380  0.9550  0.3920
13044SOL    HW240553   1.517   0.048   6.764  0.0893  1.2427  0.0176
13045SOL     OW40554   0.824   1.474   2.590  0.6931  0.0325 -0.1233
13045SOL    HW140555   0.789   1.387   2.611 -1.3558  0.7521 -0.3094
13045SOL    HW240556   0.879   1.459   2.513  0.5641 -1.1266 -0.0128
13046SOL     OW40557   3.325   6.072   2.920 -0.0689  0.1910  0.2829
13046SOL    HW140558   3.375   6.135   2.972  1.3433  0.7593 -1.6871
13046SOL    HW240559   3.376   6.059   2.841 -1.3817 -1.8502 -0.3097
13047SOL     OW40560   6.001   7.906   2.664  0.3130  0.2057 -0.9726
13047SOL    HW140561   6.073   7.846   2.684 -1.7913 -1.8738  1.0531
13047SOL    HW240562   5.994   7.904   2.568  0.7818 -2.2961 -1.0301
13048SOL     OW40563   0.479   1.813   4.763  0.1305  0.1222 -1.0054
13048SOL    HW140564   0.473   1.908   4.765  0.3251  0.1252  0.0689
13048SOL    HW240565   0.467   1.786   4.854  0.8703 -0.8272 -1.1668
13049SOL     OW40566   2.667   1.270   2.815  0.4597  0.1585 -0.2779
13049SOL    HW140567   2.659   1.291   2.908  0.5415  3.0120 -0.8081
13049SOL    HW240568   2.674   1.175   2.812 -1.1509 -0.1608  2.5011
13050SOL     OW40569   0.028   2.550   0.150  0.7957  0.4283  0.0746
13050SOL    HW140570   0.102   2.575   0.205  0.7882  3.0379 -0.9376
13050SOL    HW240571  -0.000   2.465   0.184  3.1630  0.1472  1.5710
13051SOL     OW40572   6.099   3.585   4.816  0.3253  0.0569  0.0925
13051SOL    HW140573   6.073   3.638   4.892  2.2943 -0.2898  1.0773
13051SOL    HW240574   6.176   3.536   4.846  1.1558 -0.1167 -2.1299
13052SOL     OW40575   3.344   0.220   4.582 -0.1554  0.4107  0.1620
13052SOL    HW140576   3.302   0.218   4.668 -0.2922 -2.6067  0.1455
13052SOL    HW240577   3.432   0.253   4.599  0.6787 -2.3638  2.0328
13053SOL     OW40578   2.613   2.332   5.050  0.4883 -0.4694  0.6150
13053SOL    HW140579   2.578   2.251   5.012  1.4929 -0.7255  0.1894
13053SOL    HW240580   2.707   2.326   5.035  0.5780  0.7900  0.5603
13054SOL     OW40581   4.598   5.321   3.050  0.4368  0.0366  0.1212
13054SOL    HW140582   4.685   5.312   3.087  0.2418  0.3195  0.6623
13054SOL    HW240583   4.603   5.399   2.995  0.5047  0.0906  0.2051
13055SOL     OW40584   1.024   4.179   4.091  0.1509  0.0110  0.0583
13055SOL    HW140585   0.998   4.087   4.101  0.3698 -0.0991 -0.3762
13055SOL    HW240586   1.051   4.206   4.178  0.4564 -0.4503  0.1071
13056SOL     OW40587   0.076   0.040   4.546  0.0563 -0.3362 -0.0335
13056SOL    HW140588   0.057   0.058   4.638  1.6509  0.2374  0.2084
13056SOL    HW240589   0.148   0.099   4.524  0.3470 -1.1486 -1.3765
13057SOL     OW40590   2.840   7.920   2.766 -0.2700  0.2035  0.1831
13057SOL    HW140591   2.924   7.957   2.792 -0.1440 -0.7290  1.2066
13057SOL    HW240592   2.794   7.906   2.849 -0.5328 -1.3454 -0.1921
13058SOL     OW40593   6.197   4.484   0.276  0.0143  0.5785  0.5679
13058SOL    HW140594   6.152   4.467   0.359 -0.2377  0.3280  0.3814
13058SOL    HW240595   6.216   4.578   0.278 -0.3812  0.6570  0.7185
13059SOL     OW40596   6.340   1.497   5.964 -0.2395  0.2699  0.3192
13059SOL    HW140597   6.307   1.412   5.993  0.7058 -0.4739 -0.6876
13059SOL    HW240598   6.416   1.513   6.020 -0.3839  0.4306  0.4704
13060SOL     OW40599   5.785   6.507   6.257 -0.0198 -0.2810 -0.2576
13060SOL    HW140600   5.742   6.577   6.307  1.7517  0.6257  0.1054
13060SOL    HW240601   5.794   6.435   6.320 -1.5621 -0.7361 -0.5358
13061SOL     OW40602   0.910   3.947   2.861 -0.3548  0.1556 -0.0813
13061SOL    HW140603   0.894   3.898   2.780 -0.1383  0.7502 -0.4884
13061SOL    HW240604   0.830   3.997   2.874 -0.4472 -0.0514  0.1599
13062SOL     OW40605   5.722   3.314   3.098  0.0669 -0.0719 -0.2316
13062SOL    HW140606   5.709   3.299   3.004  0.4045  0.3521 -0.3510
13062SOL    HW240607   5.634   3.316   3.135 -0.0306 -2.9079 -0.0940
13063SOL     OW40608   0.974   2.752   2.551 -0.4113 -0.4773  0.7878
13063SOL    HW140609   0.971   2.725   2.459 -2.4712 -0.9300  0.9403
13063SOL    HW240610   1.067   2.765   2.569 -0.0365  0.9145 -1.7193
13064SOL     OW40611   2.433   1.171   4.417 -0.2033 -0.1684  0.3376
13064SOL    HW140612   2.504   1.235   4.408 -0.5572  0.1337 -0.3658
13064SOL    HW240613   2.446   1.110   4.345 -0.7370 -0.0267  0.1122
13065SOL     OW40614   4.521   3.704   0.591 -0.1059 -0.2822  0.0716
13065SOL    HW140615   4.605   3.731   0.626  0.0191  0.9732 -1.0879
13065SOL    HW240616   4.484   3.784   0.553 -0.4279 -1.4115 -2.1980
13066SOL     OW40617   7.436   2.021   5.531  0.4352 -0.0835  0.7993
13066SOL    HW140618   7.359   2.046   5.480  1.9352  2.4890 -0.4257
13066SOL    HW240619   7.467   1.940   5.490 -2.5064 -2.2302  2.4608
13067SOL     OW40620   6.323   4.071   0.322  0.4955  0.1688 -0.0195
13067SOL    HW140621   6.243   4.042   0.278 -0.0120  1.7452 -0.1821
13067SOL    HW240622   6.357   4.141   0.266  0.2441  1.6896  1.6451
13068SOL     OW40623   1.732   5.002   0.944  0.0018 -0.2258 -0.1415
13068SOL    HW140624   1.739   4.907   0.940  0.6259 -0.2046  0.2930
13068SOL    HW240625   1.774   5.033   0.864  0.4288 -0.2902  0.0574
13069SOL     OW40626   5.408   0.851   5.182  0.1211  0.3142  0.2302
13069SOL    HW140627   5.330   0.819   5.137  0.1246 -0.2221  0.6086
13069SOL    HW240628   5.390   0.840   5.275 -0.0089  1.7082  0.3943
13070SOL     OW40629   7.029   3.042   3.336  0.0153 -0.0903 -0.5732
13070SOL    HW140630   6.985   2.966   3.374  0.3457  0.6293  1.3749
13070SOL    HW240631   6.983   3.118   3.373  0.6474  0.6635 -1.2860
13071SOL     OW40632   6.865   2.587   2.369  0.0977 -0.5823 -0.7554
13071SOL    HW140633   6.920   2.510   2.362 -1.4608 -2.0174  1.4204
13071SOL    HW240634   6.776   2.555   2.355 -0.5806  0.8179  0.1075
13072SOL     OW40635   4.695   1.902   2.721 -0.4456  0.0356  0.0350
13072SOL    HW140636   4.785   1.885   2.693  0.2591 -0.7715  2.5424
13072SOL    HW240637   4.673   1.828   2.777 -1.9559  1.1900  1.0382
13073SOL     OW40638   0.181   0.585   7.457  0.0599 -0.2684  0.4595
13073SOL    HW140639   0.142   0.527   7.391 -0.6580 -1.0564  1.5373
13073SOL    HW240640   0.237   0.527   7.508  0.8658  0.4010  0.3521
13074SOL     OW40641   5.156   0.022   3.134 -0.0342  0.0183 -0.0157
13074SOL    HW140642   5.086   0.028   3.199  0.4323  0.2435  0.4732
13074SOL    HW240643   5.126   0.075   3.061 -0.3601  0.1429  0.2060
13075SOL     OW40644   2.566   6.941   4.068  0.1424 -0.4318 -0.1572
13075SOL    HW140645   2.471   6.938   4.053 -0.1540  1.6396  0.9215
13075SOL    HW240646   2.575   6.960   4.162  1.5737  0.4324 -0.4365
13076SOL     OW40647   6.955   2.463   6.405 -0.5333  0.3063  0.5860
13076SOL    HW140648   6.883   2.488   6.347  0.6976 -0.1492 -1.2276
13076SOL    HW240649   6.973   2.371   6.383  0.9208  0.5619  0.5896
13077SOL     OW40650   2.011   7.830   3.710  0.0861  0.1265  0.3159
13077SOL    HW140651   2.036   7.875   3.629  1.0954  1.0574  1.1070
13077SOL    HW240652   2.094   7.809   3.752 -0.4098 -1.5650  0.4831
13078SOL     OW40653   2.731   1.077   4.532 -0.4840 -0.5321  0.0545
13078SOL    HW140654   2.810   1.097   4.582 -2.6378  0.8726  3.2501
13078SOL    HW240655   2.711   1.159   4.485 -1.2244 -0.0862  1.1098
13079SOL     OW40656   0.091   5.138   7.509 -0.0807 -0.1452  0.0666
13079SOL    HW140657   0.003   5.156   7.476 -0.7069 -2.4711  0.3384
13079SOL    HW240658   0.146   5.135   7.430 -0.8695 -1.8701 -0.4585
13080SOL     OW40659   7.459   6.158   0.413  0.0533 -0.4972 -0.2273
13080SOL    HW140660   7.404   6.117   0.346 -1.5402 -1.6025  1.6400
13080SOL    HW240661   7.481   6.086   0.473  0.7368  0.5975  0.8912
13081SOL     OW40662   1.953   6.042   1.494 -0.1570 -0.5410  0.2033
13081SOL    HW140663   2.025   6.054   1.432  1.0109 -0.3654  1.5296
13081SOL    HW240664   1.946   6.125   1.541 -1.5192 -0.4174 -0.1768
13082SOL     OW40665   2.226   0.952   1.639 -0.6088  0.5577  0.1911
13082SOL    HW140666   2.172   0.882   1.602 -0.6109 -1.1393  3.0712
13082SOL    HW240667   2.313   0.937   1.601 -0.8471 -0.3793 -0.0130
13083SOL     OW40668   0.655   6.557   6.406 -0.1452 -0.0788 -0.0826
13083SOL    HW140669   0.627   6.556   6.315  1.4189  0.0915 -0.6085
13083SOL    HW240670   0.731   6.498   6.409  0.8719  1.2045  0.7148
13084SOL     OW40671   1.273   3.897   4.418  0.1351  0.1254  0.3153
13084SOL    HW140672   1.354   3.883   4.468  1.0060  0.0008 -1.0893
13084SOL    HW240673   1.277   3.832   4.347 -0.5349  1.0216 -0.5597
13085SOL     OW40674   6.696   6.737   1.783 -0.1518 -0.0737 -0.2368
13085SOL    HW140675   6.621   6.796   1.774  0.1372  0.2995 -0.1751
13085SOL    HW240676   6.666   6.669   1.844 -1.0743 -0.9296 -1.5828
13086SOL     OW40677   0.775   5.663   2.798 -0.3400 -0.0883 -0.2757
13086SOL    HW140678   0.773   5.714   2.718 -0.6388 -1.3163 -1.0794
13086SOL    HW240679   0.762   5.727   2.868  0.9016  1.1471 -1.1187
13087SOL     OW40680   3.432   3.238   1.048  0.2379 -0.3577  0.3710
13087SOL    HW140681   3.501   3.283   1.096  0.0162 -0.8457  1.1821
13087SOL    HW240682   3.351   3.263   1.093 -0.4119  1.8540 -1.8063
13088SOL     OW40683   7.546   1.891   7.083 -0.0772 -0.3562  0.2355
13088SOL    HW140684   7.628   1.844   7.088 -0.2022 -0.5406  0.6238
13088SOL    HW240685   7.560   1.959   7.017  0.8208  0.4609  1.2273
13089SOL     OW40686   1.850   6.809   5.075  0.5145  0.0880  0.4420
13089SOL    HW140687   1.866   6.881   5.014  0.5187 -1.8695 -2.0353
13089SOL    HW240688   1.936   6.769   5.089  0.0259 -1.9444 -1.6842
13090SOL     OW40689   1.980   2.250   0.179  0.3507 -0.5106  0.0268
13090SOL    HW140690   2.055   2.245   0.238  0.0164 -1.4277  0.3976
13090SOL    HW240691   1.987   2.172   0.124 -0.6289 -0.9106  0.4471
13091SOL     OW40692   1.543   3.770   7.749 -0.3738 -0.0214 -0.3359
13091SOL    HW140693   1.619   3.828   7.755 -0.7898  0.3529  1.8470
13091SOL    HW240694   1.574   3.696   7.696  0.6733  1.3558 -1.7483
13092SOL     OW40695   5.449   2.250   7.407 -0.2633 -0.5195 -0.1424
13092SOL    HW140696   5.456   2.236   7.313  0.1006  2.0419 -0.5753
13092SOL    HW240697   5.531   2.294   7.431 -2.0858  2.9672  0.4227
13093SOL     OW40698   3.059   7.043   1.119  0.6964  0.2979  0.5649
13093SOL    HW140699   3.115   7.074   1.190 -0.1119 -0.0658  1.3812
13093SOL    HW240700   2.975   7.086   1.134  0.3677 -0.1684  0.1127
13094SOL     OW40701   3.533   7.278   6.931 -0.4006  0.1993  0.0509
13094SOL    HW140702   3.553   7.191   6.967 -1.0978 -0.2753 -0.6820
13094SOL    HW240703   3.602   7.294   6.866 -0.9948 -0.3775 -0.7357
13095SOL     OW40704   2.229   1.631   4.450  0.7324 -0.4575  0.0096
13095SOL    HW140705   2.290   1.640   4.377  1.4512 -1.3449  0.4804
13095SOL    HW240706   2.228   1.717   4.491  3.2642 -0.9179  1.2022
13096SOL     OW40707   6.907   5.122   4.649  0.0261  0.7630 -0.1405
13096SOL    HW140708   6.860   5.085   4.724  0.0621 -2.6345 -1.5999
13096SOL    HW240709   6.842   5.178   4.606 -1.3866 -0.5140  0.2123
13097SOL     OW40710   4.886   6.663   4.013  0.5183 -0.4437 -0.1168
13097SOL    HW140711   4.939   6.722   4.067 -0.7186  0.3652  0.2346
13097SOL    HW240712   4.944   6.638   3.941  0.6825  2.2466 -1.0245
13098SOL     OW40713   4.488   7.172   1.013 -0.4886  0.3063 -0.4587
13098SOL    HW140714   4.441   7.115   1.074 -2.1206 -0.4518 -2.3065
13098SOL    HW240715   4.577   7.135   1.010 -0.5281  0.0280  0.9949
13099SOL     OW40716   3.671   7.858   1.535 -0.3130 -0.3679  0.0302
13099SOL    HW140717   3.623   7.784   1.572 -0.5091 -0.4389 -0.3516
13099SOL    HW240718   3.705   7.825   1.452  0.8386 -0.4726  0.5316
13100SOL     OW40719   1.116   0.920   1.268 -0.2590  0.5397 -0.7344
13100SOL    HW140720   1.134   0.933   1.361  0.0783  0.1043 -0.7338
13100SOL    HW240721   1.057   0.844   1.265 -1.4416  1.4301 -0.7929
13101SOL     OW40722   2.923   2.665   7.545  0.2715 -0.1286  0.1247
13101SOL    HW140723   2.949   2.648   7.636  2.7213 -1.6855 -0.7709
13101SOL    HW240724   2.965   2.595   7.495 -1.5425  0.3144 -2.1661
13102SOL     OW40725   4.134   2.650   6.738  0.1034 -0.1620 -0.3156
13102SOL    HW140726   4.138   2.745   6.724  0.9405  0.0866  1.3174
13102SOL    HW240727   4.222   2.619   6.716  0.3851 -0.2606  0.8774
13103SOL     OW40728   5.132   6.975   6.751  0.1695 -0.1260 -0.0679
13103SOL    HW140729   5.193   6.902   6.761  0.4680 -0.1646 -1.9519
13103SOL    HW240730   5.091   6.961   6.666 -0.3644  1.4670 -0.1027
13104SOL     OW40731   5.724   5.779   4.309 -0.2666 -0.1463 -0.2086
13104SOL    HW140732   5.759   5.823   4.386  0.4113 -0.7890 -0.1342
13104SOL    HW240733   5.726   5.686   4.332 -0.9892 -0.2747 -0.6313
13105SOL     OW40734   1.112   6.553   7.021  0.1442 -0.4475 -0.3825
13105SOL    HW140735   1.021   6.580   7.010  0.5393 -0.1368 -3.6406
13105SOL    HW240736   1.124   6.549   7.116 -2.0331  3.7226  0.2799
13106SOL     OW40737   1.591   5.436   2.457 -0.4821 -0.5903  0.4507
13106SOL    HW140738   1.537   5.357   2.449 -0.6778 -0.6887  2.2580
13106SOL    HW240739   1.536   5.497   2.506  0.0666  0.3064 -0.0281
13107SOL     OW40740   0.822   2.254   1.895 -0.1442  0.3854  0.3353
13107SOL    HW140741   0.781   2.262   1.809 -1.7495  0.9767  1.1225
13107SOL    HW240742   0.872   2.334   1.906 -2.1172  1.5991  1.0091
13108SOL     OW40743   6.248   5.416   7.578 -0.1008  0.5535 -0.1473
13108SOL    HW140744   6.272   5.473   7.505 -0.3967  1.3099  0.3251
13108SOL    HW240745   6.331   5.387   7.615  0.0529  0.7553 -0.3369
13109SOL     OW40746   2.440   3.737   6.410  0.3695  0.0126 -0.3553
13109SOL    HW140747   2.344   3.741   6.403  0.3353  1.7183  0.4342
13109SOL    HW240748   2.463   3.651   6.375 -1.6405 -1.3981  1.5028
13110SOL     OW40749   3.426   1.601   3.099 -0.7547 -0.3283  0.6267
13110SOL    HW140750   3.472   1.677   3.134  2.4704 -1.7079 -0.2650
13110SOL    HW240751   3.366   1.575   3.170 -0.1106  1.5188  1.9230
13111SOL     OW40752   1.478   7.786   3.053  0.3291 -0.5407  0.2707
13111SOL    HW140753   1.523   7.735   3.121  0.9272  1.2164  1.2568
13111SOL    HW240754   1.477   7.876   3.087  1.0747  0.5024 -2.2790
13112SOL     OW40755   4.889   7.168   1.268 -0.5467 -0.0899  0.2474
13112SOL    HW140756   4.951   7.241   1.266 -1.5124  0.7547  0.2138
13112SOL    HW240757   4.820   7.195   1.329 -0.3880 -1.4422  1.0719
13113SOL     OW40758   2.099   3.280   4.664  0.6351 -0.0718  0.2790
13113SOL    HW140759   2.142   3.219   4.724  1.5205  0.2471 -0.0126
13113SOL    HW240760   2.015   3.238   4.643  1.3583 -1.3507 -0.1539
13114SOL     OW40761   0.025   2.676   6.345 -0.6953  0.0698  0.6593
13114SOL    HW140762   0.080   2.728   6.403 -0.7175 -1.0485  1.7393
13114SOL    HW240763  -0.061   2.719   6.347 -0.1832  1.1736 -0.1482
13115SOL     OW40764   4.698   2.106   0.103 -0.2013  0.7735 -0.1182
13115SOL    HW140765   4.662   2.023   0.135 -0.4027  1.0511  0.3754
13115SOL    HW240766   4.655   2.173   0.156  0.9520  1.1292  0.4000
13116SOL     OW40767   3.534   2.700   2.328 -0.2456  0.1892 -0.1393
13116SOL    HW140768   3.535   2.749   2.246  0.3499  0.1236 -0.1739
13116SOL    HW240769   3.475   2.627   2.311 -0.2735  0.2808 -0.4485
13117SOL     OW40770   7.653   6.488   5.647 -0.1062  0.4791  0.0106
13117SOL    HW140771   7.641   6.427   5.721  0.0182  1.5447  0.9364
13117SOL    HW240772   7.746   6.511   5.651  0.2591 -0.6042 -1.4311
13118SOL     OW40773   4.572   6.862   0.671 -0.2140 -0.7549 -0.1395
13118SOL    HW140774   4.532   6.788   0.718  0.3368 -1.4032 -0.6720
13118SOL    HW240775   4.607   6.823   0.591  0.8658 -0.0829 -0.0116
13119SOL     OW40776   6.457   1.168   6.547  0.3466  0.4910 -0.1368
13119SOL    HW140777   6.371   1.206   6.529 -1.4796 -3.9083 -2.4512
13119SOL    HW240778   6.460   1.162   6.643 -0.9266  2.5916  0.1096
13120SOL     OW40779   0.787   7.337   7.138 -0.3906 -0.0011  0.2682
13120SOL    HW140780   0.755   7.254   7.102  1.9885 -0.0046 -2.1611
13120SOL    HW240781   0.832   7.312   7.218  1.1136 -1.2921 -0.8997
13121SOL     OW40782   4.204   3.459   7.214  0.8371 -0.0395 -0.0045
13121SOL    HW140783   4.259   3.393   7.173  0.7965 -0.4308  0.5660
13121SOL    HW240784   4.215   3.446   7.308 -0.7792 -0.6200  0.1442
13122SOL     OW40785   1.954   6.320   5.391 -0.2858  0.3548 -0.3198
13122SOL    HW140786   2.024   6.257   5.406 -1.5263 -1.0992 -0.4853
13122SOL    HW240787   1.977   6.363   5.309  0.8913  0.5898  0.1183
13123SOL     OW40788   2.549   0.253   2.051  0.0775  0.5173  0.1340
13123SOL    HW140789   2.482   0.190   2.022  0.4664  0.2154 -0.1239
13123SOL    HW240790   2.632   0.208   2.035  0.5829  2.3957 -3.4417
13124SOL     OW40791   7.563   2.002   1.246 -0.1843  0.0799  0.4695
13124SOL    HW140792   7.631   1.938   1.226  0.8045  0.4804  2.3478
13124SOL    HW240793   7.595   2.048   1.323 -0.4917  3.4106 -1.2177
13125SOL     OW40794   3.918   1.235   0.487  0.6120  0.0406 -0.1871
13125SOL    HW140795   3.880   1.313   0.527  0.4222  0.0174 -0.3170
13125SOL    HW240796   3.993   1.267   0.437 -0.5975  0.4487 -1.8531
13126SOL     OW40797   6.987   2.994   7.167 -0.0609  0.2241  0.3830
13126SOL    HW140798   6.935   3.069   7.137 -0.5903 -1.2536 -2.8414
13126SOL    HW240799   7.065   3.033   7.207 -2.2286  2.4640  2.8378
13127SOL     OW40800   7.225   3.630   4.193  1.1515 -0.2745  0.6623
13127SOL    HW140801   7.245   3.552   4.245  2.2356 -1.0672 -0.8557
13127SOL    HW240802   7.182   3.596   4.115 -0.5760  0.9003  1.0416
13128SOL     OW40803   4.627   1.500   4.581  0.0274 -0.4553  0.1200
13128SOL    HW140804   4.645   1.522   4.672 -0.8199  2.1716 -0.2406
13128SOL    HW240805   4.665   1.572   4.531 -1.9809 -0.3208 -1.3589
13129SOL     OW40806   7.548   3.151   6.119 -0.1261 -0.1064 -0.4202
13129SOL    HW140807   7.534   3.070   6.169 -1.0405  0.6427  0.5831
13129SOL    HW240808   7.524   3.127   6.030 -2.9945 -0.3317  0.2924
13130SOL     OW40809   4.902   3.999   3.270 -0.8357  0.6149 -0.0881
13130SOL    HW140810   4.928   4.062   3.202 -0.8890  0.5478 -0.1709
13130SOL    HW240811   4.975   4.000   3.332 -0.5788  0.3396 -0.3812
13131SOL     OW40812   7.953   3.437   4.080 -0.0751 -0.1926 -0.5291
13131SOL    HW140813   7.998   3.371   4.134 -0.0877 -1.1569 -1.6696
13131SOL    HW240814   7.901   3.486   4.143  0.3522 -0.9217  0.4316
13132SOL     OW40815   2.506   5.792   0.437 -0.5623 -0.1811 -0.5759
13132SOL    HW140816   2.502   5.827   0.526 -0.5904 -0.4118 -0.4833
13132SOL    HW240817   2.415   5.769   0.417 -0.3881 -1.3176 -0.1693
13133SOL     OW40818   7.091   8.038   4.319  0.7115 -0.2398 -0.3173
13133SOL    HW140819   7.086   8.060   4.412 -1.8085 -1.6025 -0.0453
13133SOL    HW240820   7.121   7.947   4.317 -2.0515 -1.2361 -0.5731
13134SOL     OW40821   6.247   6.256   2.966  0.1185 -0.4658 -0.1754
13134SOL    HW140822   6.198   6.315   3.024 -1.9331 -2.0026 -0.2263
13134SOL    HW240823   6.329   6.303   2.949 -1.3347  2.3268 -0.1668
13135SOL     OW40824   4.524   3.721   7.637  0.8480 -0.2415  0.0042
13135SOL    HW140825   4.525   3.627   7.654 -2.9493 -0.2066  1.5547
13135SOL    HW240826   4.456   3.731   7.570  1.7687  1.3754 -0.7332
13136SOL     OW40827   6.924   4.940   3.331 -0.5234  0.0581 -0.3307
13136SOL    HW140828   6.954   5.029   3.350  1.6599 -0.4319 -1.0916
13136SOL    HW240829   6.894   4.906   3.415 -0.9303  1.3526  0.0631
13137SOL     OW40830   2.939   0.104   5.043  0.1950 -0.1924  0.7767
13137SOL    HW140831   2.906   0.134   5.128  1.5181  1.1794  0.8432
13137SOL    HW240832   2.918   0.175   4.983 -1.0913 -1.3292 -0.1649
13138SOL     OW40833   6.278   5.255   0.027  0.4325 -0.5160  0.4398
13138SOL    HW140834   6.331   5.228  -0.048  1.2277 -0.7586  1.0876
13138SOL    HW240835   6.299   5.348   0.039 -0.2259 -0.2913 -0.0626
13139SOL     OW40836   3.162   7.385   2.425  0.2283 -0.5439 -0.0459
13139SOL    HW140837   3.083   7.352   2.467  0.2325  0.3426  0.6916
13139SOL    HW240838   3.143   7.476   2.406 -0.0234 -1.0712 -2.6417
13140SOL     OW40839   6.495   0.867   0.003 -0.3788 -0.1046  0.0723
13140SOL    HW140840   6.430   0.897  -0.062  0.1939  0.7729 -0.1081
13140SOL    HW240841   6.482   0.772   0.007 -0.2465 -0.2265 -1.5429
13141SOL     OW40842   0.415   6.233   1.761  0.6042 -0.1533  0.2141
13141SOL    HW140843   0.504   6.269   1.765  1.2935 -1.8287  1.4693
13141SOL    HW240844   0.358   6.309   1.770  1.9595  0.6777  3.2450
13142SOL     OW40845   3.555   2.626   3.882 -0.0514  0.0794 -0.4525
13142SOL    HW140846   3.486   2.585   3.829 -1.1433 -1.3287  1.9004
13142SOL    HW240847   3.528   2.718   3.891 -1.3108 -0.3052 -0.1158
13143SOL     OW40848   7.718   6.721   4.012  0.3856 -0.7123 -0.5272
13143SOL    HW140849   7.748   6.735   4.102 -2.4682 -0.0215  0.4419
13143SOL    HW240850   7.709   6.626   4.005 -1.4892 -0.7071  0.8034
13144SOL     OW40851   2.882   0.544   4.594 -0.0206  0.4491 -0.6905
13144SOL    HW140852   2.942   0.575   4.662  1.3307 -0.3099 -1.4764
13144SOL    HW240853   2.796   0.546   4.634  1.0037 -2.7321  2.1641
13145SOL     OW40854   5.562   5.497   2.249 -0.3341 -0.6572  0.3723
13145SOL    HW140855   5.507   5.502   2.171  0.6691 -2.4697 -0.5271
13145SOL    HW240856   5.517   5.434   2.306 -0.6526  0.0659  0.9466
13146SOL     OW40857   6.347   7.196   5.815  0.1896  0.1575 -0.6912
13146SOL    HW140858   6.381   7.112   5.845 -1.5176 -0.8714 -1.5320
13146SOL    HW240859   6.372   7.257   5.885 -0.1378 -1.3842  0.8470
13147SOL     OW40860   5.420   0.802   2.955  0.0448 -0.0313  0.2154
13147SOL    HW140861   5.405   0.887   2.995 -1.2616  0.2468 -0.7930
13147SOL    HW240862   5.370   0.741   3.008  0.2349 -0.0378  0.3899
13148SOL     OW40863   0.561   6.818   2.539 -0.1591 -0.0063 -0.1642
13148SOL    HW140864   0.543   6.733   2.498 -0.6921 -0.0706  0.1920
13148SOL    HW240865   0.480   6.868   2.526  0.1630  0.4596 -0.4014
13149SOL     OW40866   0.886   2.643   2.839  0.2273  0.2832  0.0691
13149SOL    HW140867   0.902   2.632   2.745 -0.5629 -3.3126  0.2119
13149SOL    HW240868   0.799   2.681   2.844  0.3311  0.6463 -0.6442
13150SOL     OW40869   1.111   7.478   6.802  0.1754  0.0039  0.0063
13150SOL    HW140870   1.096   7.396   6.849  0.6091 -0.6949 -1.0183
13150SOL    HW240871   1.052   7.473   6.726  0.1507  0.6772 -0.0234
13151SOL     OW40872   7.607   6.988   0.103  0.6178  0.1189 -0.2676
13151SOL    HW140873   7.512   6.980   0.114  0.6943 -0.6572 -0.1150
13151SOL    HW240874   7.618   7.072   0.058 -0.0962  0.5112  0.2473
13152SOL     OW40875   3.081   2.436   3.986  0.2348 -0.2711  0.1453
13152SOL    HW140876   2.999   2.443   3.938  0.8283 -2.2298 -1.2739
13152SOL    HW240877   3.092   2.522   4.027 -1.6809  0.5656 -0.9545
13153SOL     OW40878   2.375   1.995   5.274  0.4090  1.0006  0.1624
13153SOL    HW140879   2.426   2.057   5.222  1.1955  0.3408  0.1260
13153SOL    HW240880   2.337   1.935   5.209  0.7033  0.6762  0.2920
13154SOL     OW40881   0.910   0.549   3.475  0.3754  0.0720  0.2987
13154SOL    HW140882   0.872   0.461   3.473  0.6614 -0.0510  0.1109
13154SOL    HW240883   1.004   0.534   3.464  0.4618  0.3799  0.6089
13155SOL     OW40884   7.445   3.260   0.892  0.0392  0.2277  0.5791
13155SOL    HW140885   7.442   3.234   0.800  1.9159 -0.3660  0.6389
13155SOL    HW240886   7.392   3.340   0.897 -0.4426  0.0300 -0.9112
13156SOL     OW40887   4.022   3.615   3.632 -0.0354 -0.4819  0.1988
13156SOL    HW140888   4.032   3.583   3.542 -0.6113  2.5077 -1.0395
13156SOL    HW240889   4.101   3.666   3.648 -1.2074  1.4192  0.2391
13157SOL     OW40890   5.397   0.057   2.674 -0.5653  0.5451 -0.1815
13157SOL    HW140891   5.372   0.113   2.747  0.8409 -0.0529  0.7746
13157SOL    HW240892   5.486   0.029   2.693 -1.2172 -2.0519 -0.6140
13158SOL     OW40893   7.843   4.174   6.825 -0.1550  0.3887  0.7559
13158SOL    HW140894   7.836   4.155   6.731 -0.7658  0.4403  0.7904
13158SOL    HW240895   7.850   4.088   6.866  2.6790  0.3799  0.4928
13159SOL     OW40896   7.791   2.781   2.027  0.1880 -0.0690 -0.1481
13159SOL    HW140897   7.700   2.788   2.057  0.0465  1.3787 -0.8356
13159SOL    HW240898   7.784   2.760   1.934  0.5138  1.2997 -0.5011
13160SOL     OW40899   5.409   7.147   1.990 -0.2191 -0.3815  0.2004
13160SOL    HW140900   5.313   7.142   1.990 -0.1972 -0.9316 -0.0885
13160SOL    HW240901   5.437   7.062   1.956  0.3782 -0.3578  0.6148
13161SOL     OW40902   2.963   5.577   1.473  0.7554  0.3720 -0.4988
13161SOL    HW140903   3.049   5.561   1.513  0.6270  0.7935 -0.0610
13161SOL    HW240904   2.918   5.635   1.533 -0.4864 -1.1452  0.1042
13162SOL     OW40905   0.185   1.823   5.824 -0.0907  0.0657  0.0632
13162SOL    HW140906   0.217   1.806   5.913  1.2213 -0.4260 -0.4834
13162SOL    HW240907   0.160   1.916   5.825 -1.4545 -0.2873  1.3342
13163SOL     OW40908   2.116   6.726   3.913 -0.6647 -0.1164 -0.0579
13163SOL    HW140909   2.038   6.753   3.962  0.0761  1.9063  0.1060
13163SOL    HW240910   2.090   6.646   3.868 -2.8669  0.5258 -0.0377
13164SOL     OW40911   3.348   0.300   0.950 -0.4242 -0.3500  0.0393
13164SOL    HW140912   3.405   0.292   1.027 -0.8173 -0.3568  0.3313
13164SOL    HW240913   3.375   0.382   0.909  0.4038 -0.7972 -0.3236
13165SOL     OW40914   6.660   0.230   2.698  0.1753 -0.2313 -0.5108
13165SOL    HW140915   6.684   0.215   2.606 -0.3953 -0.0738 -0.6900
13165SOL    HW240916   6.743   0.226   2.745  0.6384  0.8112 -1.1848
13166SOL     OW40917   3.441   6.363   7.258 -0.2699  0.2438 -0.5337
13166SOL    HW140918   3.372   6.298   7.269 -0.5682  0.3450 -1.7213
13166SOL    HW240919   3.432   6.393   7.167  0.0774  1.7002 -0.1095
13167SOL     OW40920   2.301   0.105   5.032 -0.2345  0.3058 -0.0085
13167SOL    HW140921   2.280   0.192   4.998 -0.5790  0.6992  1.1572
13167SOL    HW240922   2.344   0.060   4.959 -1.2750  0.9793 -1.0662
13168SOL     OW40923   3.657   4.497   2.704 -0.4059 -0.2190 -0.0789
13168SOL    HW140924   3.638   4.586   2.674  0.0221 -0.4520 -1.0829
13168SOL    HW240925   3.587   4.477   2.765  0.6060  1.5712  1.7973
13169SOL     OW40926   0.589   2.729   4.319  0.1372 -0.0123  0.1959
13169SOL    HW140927   0.667   2.676   4.303 -0.6650 -0.9130 -0.8857
13169SOL    HW240928   0.527   2.668   4.359 -0.8423  0.0494 -1.1750
13170SOL     OW40929   3.015   1.721   3.399 -0.0128 -0.0165 -0.4743
13170SOL    HW140930   2.965   1.737   3.319  0.0845  0.6053 -0.4139
13170SOL    HW240931   2.969   1.649   3.441 -1.9683  1.6809  0.4746
13171SOL     OW40932   2.457   4.477   7.814 -0.3142 -0.4751 -0.2749
13171SOL    HW140933   2.432   4.416   7.745  1.1097 -0.5929 -0.7114
13171SOL    HW240934   2.374   4.499   7.858 -0.9941 -1.8139 -0.8390
13172SOL     OW40935   1.304   6.719   1.766 -0.1032  0.1972 -0.2971
13172SOL    HW140936   1.224   6.689   1.810  1.1386 -1.5726  0.8752
13172SOL    HW240937   1.353   6.639   1.747  0.7538  1.1394 -2.3230
13173SOL     OW40938   7.412   0.025   5.261  0.3084 -0.0857 -0.3647
13173SOL    HW140939   7.468   0.094   5.226  1.4534 -0.4846  0.6130
13173SOL    HW240940   7.421  -0.047   5.198  1.6414 -0.4764  0.2471
13174SOL     OW40941   1.582   7.028   7.636  0.3428  0.1682  0.1579
13174SOL    HW140942   1.607   6.984   7.718  0.1568  1.1435  0.7591
13174SOL    HW240943   1.658   7.017   7.579  1.4209  1.4422  1.2747
13175SOL     OW40944   0.463   1.784   4.373  0.4480 -0.7771 -0.5041
13175SOL    HW140945   0.383   1.739   4.399  0.9486 -0.2225  2.3709
13175SOL    HW240946   0.530   1.715   4.372  0.2680 -0.9514 -1.2768
13176SOL     OW40947   1.831   0.260   5.441 -0.3578 -0.3862  0.2600
13176SOL    HW140948   1.905   0.214   5.401 -0.6777  0.1430 -0.9709
13176SOL    HW240949   1.852   0.261   5.535  2.1376  1.3384 -0.1923
13177SOL     OW40950   4.884   0.657   7.405 -0.0161 -0.3972  0.2219
13177SOL    HW140951   4.881   0.562   7.417  0.0398 -0.4571 -0.2113
13177SOL    HW240952   4.832   0.692   7.477  3.1451 -0.5265  2.7504
13178SOL     OW40953   6.140   5.498   5.621  0.7423  0.1127 -0.2508
13178SOL    HW140954   6.191   5.462   5.693  0.7471 -1.1952 -0.8787
13178SOL    HW240955   6.049   5.475   5.642  0.3068  2.6049  0.9681
13179SOL     OW40956   2.658   1.331   3.082  0.0068 -0.2026  0.2213
13179SOL    HW140957   2.732   1.384   3.112 -0.1661  0.2190 -0.0820
13179SOL    HW240958   2.616   1.301   3.162  0.8939 -1.0037  0.4025
13180SOL     OW40959   7.448   1.868   0.262 -0.3965 -0.1297  0.3598
13180SOL    HW140960   7.515   1.818   0.309  0.3397  0.9566  0.4999
13180SOL    HW240961   7.370   1.863   0.318  0.5724  1.4591  1.9555
13181SOL     OW40962   0.781   5.568   1.790  0.0471 -0.3032 -0.2801
13181SOL    HW140963   0.823   5.558   1.876 -0.3446  0.6442  0.0372
13181SOL    HW240964   0.842   5.527   1.729 -0.2715 -2.1706  0.5827
13182SOL     OW40965   5.849   3.417   0.369  0.7109 -0.0320  0.5004
13182SOL    HW140966   5.812   3.470   0.439  0.2307 -1.5461  1.4342
13182SOL    HW240967   5.858   3.330   0.406  1.3417 -0.6711 -1.0349
13183SOL     OW40968   2.781   7.977   4.030  0.1520  0.7593 -0.0919
13183SOL    HW140969   2.708   7.991   3.970  0.3750  0.2795 -0.4777
13183SOL    HW240970   2.817   7.892   4.005 -0.3496  0.0930  1.3384
13184SOL     OW40971   7.202   1.647   5.441 -0.1487 -0.0538 -0.5836
13184SOL    HW140972   7.242   1.693   5.514  0.7422 -0.4677 -0.8071
13184SOL    HW240973   7.110   1.675   5.442 -0.0961  0.0979  0.5609
13185SOL     OW40974   3.701   1.095   5.441  0.4084 -0.6001  0.6958
13185SOL    HW140975   3.622   1.057   5.480  0.3727  0.0981  1.3399
13185SOL    HW240976   3.682   1.188   5.436  1.1767 -0.4314  0.8199
13186SOL     OW40977   5.831   6.395   3.627  0.2913  0.1141  0.3511
13186SOL    HW140978   5.909   6.445   3.648 -0.5120  1.1874  0.8849
13186SOL    HW240979   5.764   6.461   3.610 -0.8849 -0.7562  1.4102
13187SOL     OW40980   4.419   0.605   4.215 -0.2587 -0.4732 -0.8946
13187SOL    HW140981   4.420   0.676   4.280 -2.0013 -1.5119  0.3483
13187SOL    HW240982   4.437   0.526   4.266 -0.6437 -1.1897 -1.8542
13188SOL     OW40983   4.087   7.143   6.601 -0.5541 -0.0696 -0.2134
13188SOL    HW140984   4.049   7.214   6.549 -0.4615 -0.8831 -1.4526
13188SOL    HW240985   4.042   7.064   6.570  0.2949 -0.7215  0.1628
13189SOL     OW40986   3.481   1.265   6.000  0.1258 -0.1652  0.0377
13189SOL    HW140987   3.414   1.319   5.956  1.2971  0.7545 -0.6746
13189SOL    HW240988   3.528   1.326   6.056  1.9461 -0.2285 -1.3208
13190SOL     OW40989   6.796   0.012   4.066 -0.0516  0.1020  0.8688
13190SOL    HW140990   6.830   0.101   4.054 -1.4193  0.9511  2.7748
13190SOL    HW240991   6.833  -0.038   3.993  0.1228  2.4058 -0.7212
13191SOL     OW40992   3.508   4.077   6.555 -0.6695  0.0196 -0.1298
13191SOL    HW140993   3.573   4.148   6.559  1.2808 -1.6742 -0.1225
13191SOL    HW240994   3.473   4.081   6.466  1.7274 -0.8621 -1.1993
13192SOL     OW40995   7.909   7.648   7.409 -0.0227  0.3916  0.4684
13192SOL    HW140996   7.962   7.698   7.347 -1.9885  1.8984 -0.1216
13192SOL    HW240997   7.970   7.586   7.450  1.4552 -0.3255 -2.5838
13193SOL     OW40998   0.488   1.780   5.056 -0.1080 -0.0729 -0.2048
13193SOL    HW140999   0.394   1.766   5.065  0.0348 -0.1286  1.3896
13193SOL    HW241000   0.523   1.766   5.144  1.6571 -1.9838 -1.1258
13194SOL     OW41001   0.918   1.154   5.652 -0.1773 -0.1171  0.0263
13194SOL    HW141002   0.933   1.233   5.600  1.1070  0.2139  0.8385
13194SOL    HW241003   0.868   1.185   5.728  0.0880 -0.1198  0.2058
13195SOL     OW41004   2.375   4.560   1.706 -0.1062  0.4476  0.0374
13195SOL    HW141005   2.332   4.622   1.766  0.0056  0.3312  0.2371
13195SOL    HW241006   2.303   4.507   1.671 -0.0271 -0.3626  1.0773
13196SOL     OW41007   7.660   5.111   2.436  0.8999 -0.2788  0.1676
13196SOL    HW141008   7.696   5.091   2.350 -0.5345 -0.5727 -0.3803
13196SOL    HW241009   7.566   5.099   2.427  0.7987 -1.2215  2.0243
13197SOL     OW41010   5.340   6.672   5.976 -0.1038 -0.3098  0.4440
13197SOL    HW141011   5.362   6.761   5.948  0.0302 -0.4726  0.0262
13197SOL    HW241012   5.264   6.648   5.922  0.6686 -0.9359 -0.3796
13198SOL     OW41013   6.594   4.087   2.439 -0.4230 -0.3920 -0.1857
13198SOL    HW141014   6.560   4.002   2.410 -0.3804 -1.2185  1.9542
13198SOL    HW241015   6.689   4.078   2.433 -0.4368 -0.1438 -0.8351
13199SOL     OW41016   0.353   3.276   4.693  0.7823  0.0239  0.3841
13199SOL    HW141017   0.364   3.184   4.671 -3.6050 -0.5996  0.0699
13199SOL    HW241018   0.317   3.276   4.782  0.9668  1.4975  0.4922
13200SOL     OW41019   2.681   1.366   0.134  0.1190 -0.3114 -0.6016
13200SOL    HW141020   2.688   1.450   0.089  0.5552 -0.2526 -0.4292
13200SOL    HW241021   2.636   1.387   0.216  0.6626 -0.1608 -0.3400
13201SOL     OW41022   5.964   4.944   0.977 -0.1708  0.1242  0.1340
13201SOL    HW141023   6.017   4.873   0.942  2.0956  2.2089 -0.9842
13201SOL    HW241024   5.889   4.951   0.918 -1.3539 -2.3278  1.2347
13202SOL     OW41025   7.329   3.132   2.531 -0.0758 -0.3541  0.0952
13202SOL    HW141026   7.247   3.100   2.568 -0.3079  0.1259  0.0018
13202SOL    HW241027   7.339   3.220   2.566  0.4418 -0.4408  0.1671
13203SOL     OW41028   5.511   5.459   4.274 -0.0617 -0.0611  0.1142
13203SOL    HW141029   5.435   5.422   4.320  0.9109  0.7952  2.5949
13203SOL    HW241030   5.567   5.493   4.344  2.8804 -1.0912 -1.5279
13204SOL     OW41031   1.057   6.598   2.737  0.0375  0.0139  0.1202
13204SOL    HW141032   1.140   6.639   2.712  0.3678  0.1820  1.3841
13204SOL    HW241033   0.995   6.671   2.742  0.1578  0.0925  0.5097
13205SOL     OW41034   0.412   1.111   6.832  0.0493 -0.7263 -0.3786
13205SOL    HW141035   0.318   1.116   6.812 -0.1511 -0.4298  0.5694
13205SOL    HW241036   0.455   1.113   6.746 -0.7789  0.0545 -0.7972
13206SOL     OW41037   0.070   6.340   3.995  0.3037  0.3366  0.4773
13206SOL    HW141038   0.064   6.434   4.011  2.3820  0.4228  1.0104
13206SOL    HW241039   0.073   6.332   3.899  1.2669  0.9306  0.4420
13207SOL     OW41040   3.609   5.205   2.801  0.0119 -0.0184 -0.4440
13207SOL    HW141041   3.669   5.167   2.736 -0.4703  0.9895 -1.5148
13207SOL    HW241042   3.608   5.142   2.872  1.5656 -0.5463 -0.8473
13208SOL     OW41043   1.059   1.247   1.586 -0.0429  0.1932 -0.7583
13208SOL    HW141044   1.012   1.315   1.538  2.1154  1.5438 -1.0799
13208SOL    HW241045   1.054   1.276   1.678 -0.2782  0.0494 -0.7246
13209SOL     OW41046   5.774   2.945   6.837 -0.0936 -0.0401 -0.1843
13209SOL    HW141047   5.679   2.938   6.825 -0.1384 -0.9197  0.6269
13209SOL    HW241048   5.797   3.027   6.792 -1.6694  1.7818  2.0609
13210SOL     OW41049   0.130   7.671   5.473  0.5162 -0.1845 -0.1878
13210SOL    HW141050   0.138   7.680   5.378 -0.2661  0.8441 -0.1802
13210SOL    HW241051   0.221   7.669   5.505  0.8760 -3.4491 -1.1422
13211SOL     OW41052   7.889   6.146   2.892 -0.1607  0.1535  0.6593
13211SOL    HW141053   7.913   6.082   2.959 -0.4648  0.4454  1.0555
13211SOL    HW241054   7.971   6.168   2.849  0.3076  1.1540  2.0006
13212SOL     OW41055   6.863   5.244   7.411 -0.7487  0.2317 -0.0803
13212SOL    HW141056   6.930   5.215   7.349 -1.4050 -1.1008 -0.1875
13212SOL    HW241057   6.839   5.165   7.460 -1.5851  0.8750  0.5827
13213SOL     OW41058   5.624   0.143   1.881  0.7313  0.1891 -0.4943
13213SOL    HW141059   5.594   0.082   1.949  0.2452  1.8029  0.7883
13213SOL    HW241060   5.607   0.097   1.799  0.3183 -1.3715  0.4267
13214SOL     OW41061   0.470   1.543   5.713 -0.1226  0.4956  0.5973
13214SOL    HW141062   0.414   1.475   5.751 -1.1324 -0.2252 -1.9767
13214SOL    HW241063   0.408   1.611   5.684  0.3992  0.2158 -1.2650
13215SOL     OW41064   5.439   1.953   6.588  0.5265 -0.1376  0.2601
13215SOL    HW141065   5.420   2.043   6.615  0.7052 -0.0830  0.2075
13215SOL    HW241066   5.357   1.906   6.603  0.1765  0.2153 -0.4937
13216SOL     OW41067   7.363   0.457   6.948  0.1934  0.1718  0.4152
13216SOL    HW141068   7.275   0.490   6.965  0.0933  1.9834 -2.7642
13216SOL    HW241069   7.386   0.493   6.862  2.3471 -3.7386 -0.8817
13217SOL     OW41070   7.850   7.537   4.895  0.4290  0.1650 -0.0653
13217SOL    HW141071   7.892   7.468   4.843 -1.1867  1.1605 -2.9371
13217SOL    HW241072   7.914   7.608   4.897  1.6688 -0.9203  1.9810
13218SOL     OW41073   2.708   6.705   1.808  0.1278 -0.3811 -0.2736
13218SOL    HW141074   2.658   6.786   1.816  1.5738  0.3921  2.3300
13218SOL    HW241075   2.653   6.639   1.851  0.1178 -0.1448  0.0874
13219SOL     OW41076   0.386   0.333   7.399 -0.2962  0.3248  0.0349
13219SOL    HW141077   0.397   0.259   7.459  0.1943  1.6972  1.7243
13219SOL    HW241078   0.474   0.367   7.387 -0.3393 -0.1010 -1.7774
13220SOL     OW41079   5.795   4.850   3.190 -0.3511 -0.6161 -0.1512
13220SOL    HW141080   5.732   4.917   3.218  0.8549  1.4902 -2.0335
13220SOL    HW241081   5.878   4.898   3.181  0.7287 -2.5269 -0.9788
13221SOL     OW41082   4.858   4.382   6.579  0.3409 -0.2776 -0.2666
13221SOL    HW141083   4.796   4.422   6.518 -1.4908 -0.2570  1.5066
13221SOL    HW241084   4.828   4.409   6.665  1.2334 -2.4851  0.8146
13222SOL     OW41085   0.347   6.683   2.078 -0.1169 -0.1081 -0.2581
13222SOL    HW141086   0.357   6.771   2.114 -1.2316 -0.0144 -0.1386
13222SOL    HW241087   0.374   6.625   2.149 -0.9243  0.1055  0.2292
13223SOL     OW41088   2.087   0.637   8.018  0.5410  0.6507  0.3107
13223SOL    HW141089   2.019   0.596   7.964 -0.4681 -0.0069  1.9921
13223SOL    HW241090   2.156   0.570   8.025 -0.0622  0.0966  1.1446
13224SOL     OW41091   3.735   4.550   6.629  0.0615  0.2039  0.1042
13224SOL    HW141092   3.709   4.570   6.719 -1.4236 -0.1732 -0.2128
13224SOL    HW241093   3.767   4.633   6.594  1.1913  0.2334  1.1221
13225SOL     OW41094   6.781   1.176   4.325 -0.0614 -0.1896  0.0863
13225SOL    HW141095   6.742   1.193   4.411  0.6766  1.1695  0.1658
13225SOL    HW241096   6.709   1.189   4.263 -0.1107  0.7969  0.3460
13226SOL     OW41097   4.875   0.591   5.109  0.2829  0.6468  0.1936
13226SOL    HW141098   4.828   0.631   5.182 -1.8185 -1.6147  0.2365
13226SOL    HW241099   4.948   0.545   5.150  0.3756  1.1553  0.6068
13227SOL     OW41100   6.776   3.386   6.102 -0.0662  0.2841  0.4632
13227SOL    HW141101   6.740   3.405   6.189  1.0624  0.0507  1.0066
13227SOL    HW241102   6.709   3.414   6.041 -1.4079 -0.6769  1.4412
13228SOL     OW41103   5.605   4.127   0.338 -0.2975  0.5549 -0.1407
13228SOL    HW141104   5.655   4.056   0.298  0.2585  0.4649  0.6680
13228SOL    HW241105   5.668   4.199   0.347 -0.5525  0.7546  0.0776
13229SOL     OW41106   0.706   2.886   1.840  0.4405  0.0600 -0.4403
13229SOL    HW141107   0.661   2.880   1.755 -0.5275 -1.3780  0.1380
13229SOL    HW241108   0.643   2.930   1.897  0.5756 -0.1249 -0.1474
13230SOL     OW41109   3.555   2.233   6.486  0.0757  0.0785 -0.1098
13230SOL    HW141110   3.539   2.248   6.579 -1.6697 -1.3813 -0.1198
13230SOL    HW241111   3.474   2.260   6.443  0.8619  0.7469 -1.2508
13231SOL     OW41112   0.352   1.891   7.891  0.5270 -0.2403  0.4553
13231SOL    HW141113   0.357   1.921   7.982 -0.6623  0.2056  0.3918
13231SOL    HW241114   0.380   1.966   7.839  0.6936 -0.3193  0.4310
13232SOL     OW41115   4.170   5.475   1.609  0.4204 -0.1826  0.7785
13232SOL    HW141116   4.186   5.569   1.611  0.2827 -0.1543  2.5928
13232SOL    HW241117   4.258   5.436   1.613  0.7203 -0.2488 -3.0827
13233SOL     OW41118   6.839   7.240   0.852 -0.6709  0.3796 -0.9957
13233SOL    HW141119   6.915   7.182   0.858 -1.9843 -1.2414  1.3755
13233SOL    HW241120   6.833   7.281   0.938 -1.2990  2.0801 -1.8182
13234SOL     OW41121   7.547   7.195   0.803  0.4771 -0.1763  0.1941
13234SOL    HW141122   7.563   7.142   0.881  2.4289  0.5415  0.3296
13234SOL    HW241123   7.620   7.257   0.801  0.1817  0.1631 -1.9244
13235SOL     OW41124   3.486   1.872   4.924  0.2005  0.0339 -0.0130
13235SOL    HW141125   3.506   1.783   4.953  0.1322  0.2108  0.5777
13235SOL    HW241126   3.555   1.926   4.962  0.5684  0.1596 -0.8413
13236SOL     OW41127   3.333   2.337   4.141  0.1217  0.2672  0.2105
13236SOL    HW141128   3.365   2.267   4.084 -0.3263 -0.8317  1.2859
13236SOL    HW241129   3.293   2.400   4.081 -0.8256 -1.1224 -0.6619
13237SOL     OW41130   4.283   4.282   7.036 -0.6427  0.5728 -0.2904
13237SOL    HW141131   4.190   4.303   7.046 -0.3669  2.5169 -1.3336
13237SOL    HW241132   4.325   4.366   7.019  1.6256  0.0059  1.9390
13238SOL     OW41133   4.069   6.711   0.714  0.1830  0.2628  0.3544
13238SOL    HW141134   3.974   6.704   0.715  0.2223 -0.7533  1.9449
13238SOL    HW241135   4.087   6.797   0.676 -1.3603  0.4205 -0.0725
13239SOL     OW41136   5.126   0.424   5.433 -0.4451  0.1576 -0.1706
13239SOL    HW141137   5.037   0.431   5.468 -0.2392  1.5578  0.1274
13239SOL    HW241138   5.114   0.385   5.346 -1.1391 -1.5671  0.6691
13240SOL     OW41139   1.702   4.041   4.341  0.0127  0.0114 -0.3028
13240SOL    HW141140   1.797   4.034   4.328 -0.0752  1.1749 -1.8387
13240SOL    HW241141   1.687   4.134   4.358 -0.7687 -0.3250  0.9695
13241SOL     OW41142   1.606   6.112   2.543  0.4729 -0.2501  0.5259
13241SOL    HW141143   1.684   6.110   2.599 -0.7212 -2.6129  2.2588
13241SOL    HW241144   1.536   6.144   2.600 -0.0689  0.9117 -0.7318
13242SOL     OW41145   7.147   1.552   4.296  0.2971 -0.5536  0.0793
13242SOL    HW141146   7.218   1.559   4.233  0.0263  0.0726 -0.1683
13242SOL    HW241147   7.113   1.463   4.285  0.8227 -0.7418 -0.0304
13243SOL     OW41148   5.480   7.055   6.922  0.3406  0.0734 -0.0522
13243SOL    HW141149   5.570   7.078   6.944  0.0225  2.4763 -0.8972
13243SOL    HW241150   5.480   7.047   6.826  0.2084 -2.8443  0.1156
13244SOL     OW41151   4.333   3.828   4.353  0.6563  0.1270 -0.7920
13244SOL    HW141152   4.346   3.846   4.446 -0.4478  0.0062 -0.6047
13244SOL    HW241153   4.240   3.807   4.345  0.7166  0.2336 -1.9419
13245SOL     OW41154   4.013   7.959   4.924 -0.3630  0.3697  0.4198
13245SOL    HW141155   3.989   7.993   5.010  0.0313  0.2011  0.5963
13245SOL    HW241156   4.106   7.978   4.915 -0.4463  0.5676 -0.0577
13246SOL     OW41157   5.548   6.086   2.435 -0.0375 -0.1816  0.1698
13246SOL    HW141158   5.567   6.016   2.374 -0.8706  0.1512 -0.4952
13246SOL    HW241159   5.551   6.045   2.521  1.2799 -0.6279 -0.0624
13247SOL     OW41160   4.738   2.127   7.092  0.4699 -0.0154 -0.3708
13247SOL    HW141161   4.821   2.148   7.050  1.3355 -1.6952  0.4023
13247SOL    HW241162   4.680   2.199   7.068  1.9683  0.8985 -1.4132
13248SOL     OW41163   2.362   6.612   5.659 -0.3822 -0.4619  0.2583
13248SOL    HW141164   2.268   6.607   5.642 -0.5102  0.6478  0.5384
13248SOL    HW241165   2.388   6.699   5.626  0.2189 -0.0837  1.6348
13249SOL     OW41166   3.502   4.477   2.918  0.3312  0.2304  0.2287
13249SOL    HW141167   3.416   4.503   2.887  0.4728 -0.6783 -1.0323
13249SOL    HW241168   3.515   4.526   2.999 -1.4327  0.2515  0.5395
13250SOL     OW41169   1.240   5.027   2.268  0.5138  0.0410 -0.3991
13250SOL    HW141170   1.163   4.976   2.292  0.1104  0.7260 -0.2188
13250SOL    HW241171   1.220   5.062   2.181  0.6812  0.1002 -0.4148
13251SOL     OW41172   7.492   0.025   4.668  0.5398  0.3040  0.0487
13251SOL    HW141173   7.411  -0.026   4.674 -0.1339  0.8856 -2.7126
13251SOL    HW241174   7.487   0.088   4.740 -0.8265 -0.5083  0.6992
13252SOL     OW41175   5.725   6.181   2.162  0.0601 -0.7993  0.0661
13252SOL    HW141176   5.800   6.166   2.105  0.2231  0.7130 -0.1605
13252SOL    HW241177   5.750   6.142   2.246 -0.6052 -4.0137 -1.0967
13253SOL     OW41178   3.849   2.853   2.525  0.3323  0.3580 -0.0547
13253SOL    HW141179   3.805   2.915   2.467 -2.9066 -2.2108 -0.6213
13253SOL    HW241180   3.843   2.769   2.479  1.1537 -1.0962  2.3207
13254SOL     OW41181   7.121   2.347   3.886  0.0660  0.0974 -0.1041
13254SOL    HW141182   7.209   2.386   3.887  0.1003  0.0147  0.2123
13254SOL    HW241183   7.062   2.421   3.894  0.1675 -0.0210  3.0407
13255SOL     OW41184   3.508   2.977   4.147  0.0231 -0.1934 -0.1597
13255SOL    HW141185   3.569   3.047   4.171  1.0988 -0.9819 -0.5127
13255SOL    HW241186   3.525   2.907   4.210 -3.1787  0.9175  2.1839
13256SOL     OW41187   6.486   5.217   5.328  0.2464  0.3951 -0.1133
13256SOL    HW141188   6.473   5.276   5.254 -0.4882  1.2382  0.6643
13256SOL    HW241189   6.398   5.187   5.351  0.0741  2.4802  2.2567
13257SOL     OW41190   3.425   2.589   2.708 -0.1212  0.6784 -0.4354
13257SOL    HW141191   3.447   2.676   2.676 -0.2980  0.1163 -2.1941
13257SOL    HW241192   3.331   2.581   2.695  0.0899 -0.2297 -1.5175
13258SOL     OW41193   4.339   0.820   5.417  0.7731 -0.6990  0.7417
13258SOL    HW141194   4.408   0.856   5.362 -0.6378 -0.5045 -1.0227
13258SOL    HW241195   4.272   0.790   5.355 -1.8649  1.4215  2.3372
13259SOL     OW41196   1.189   0.944   4.398  0.1378 -0.0034 -0.1196
13259SOL    HW141197   1.160   0.866   4.446 -1.2757  0.7750  0.3468
13259SOL    HW241198   1.283   0.947   4.412 -0.1862  0.0617  2.4442
13260SOL     OW41199   6.286   2.466   1.976 -0.0672 -0.2252  0.3827
13260SOL    HW141200   6.202   2.434   1.941  0.2409 -0.5870 -0.0355
13260SOL    HW241201   6.313   2.397   2.038  0.8951 -1.0985 -0.9667
13261SOL     OW41202   5.230   0.589   1.743 -0.6847 -0.3007 -0.2472
13261SOL    HW141203   5.296   0.530   1.778  0.7289  0.1433 -2.0147
13261SOL    HW241204   5.151   0.569   1.793 -0.0465 -3.0431 -0.1790
13262SOL     OW41205   2.932   4.016   1.595  0.7353 -0.2252 -0.1291
13262SOL    HW141206   2.969   4.104   1.593  0.9834 -0.2636  1.3599
13262SOL    HW241207   2.864   4.020   1.663  0.1620 -0.9619 -0.6498
13263SOL     OW41208   4.253   3.328   3.027  0.4649  0.5684 -0.8217
13263SOL    HW141209   4.264   3.393   2.958 -1.0007  1.1438 -0.5396
13263SOL    HW241210   4.267   3.244   2.983  1.6688  1.0145 -1.3366
13264SOL     OW41211   0.219   4.835   2.835 -0.8678 -0.6212  0.5675
13264SOL    HW141212   0.191   4.777   2.764 -0.8194 -0.5371  0.4808
13264SOL    HW241213   0.168   4.915   2.822  0.0821 -0.1114 -0.1398
13265SOL     OW41214   3.158   2.648   4.122 -0.8786  0.1994  0.4677
13265SOL    HW141215   3.103   2.686   4.190 -0.1344 -0.0054  1.2067
13265SOL    HW241216   3.243   2.635   4.164 -0.5104 -0.2960 -0.3888
13266SOL     OW41217   7.576   3.651   0.636 -0.2881  0.0228  0.4288
13266SOL    HW141218   7.491   3.696   0.638 -0.2749  0.1566 -0.9627
13266SOL    HW241219   7.559   3.566   0.676 -1.2546 -0.2004 -0.3974
13267SOL     OW41220   6.121   6.522   4.724  0.1305 -0.7343 -0.1164
13267SOL    HW141221   6.202   6.476   4.700  0.9794 -0.3817  1.8562
13267SOL    HW241222   6.137   6.613   4.698  0.1900 -0.7497 -0.1340
13268SOL     OW41223   7.262   1.164   3.149 -0.0797  0.0830  0.1522
13268SOL    HW141224   7.279   1.134   3.239 -0.1660  2.0080  0.8538
13268SOL    HW241225   7.307   1.248   3.143  0.1680 -0.1460 -1.7320
13269SOL     OW41226   0.334   7.951   3.488  0.6399 -0.2882 -0.6950
13269SOL    HW141227   0.356   8.033   3.531  0.0084 -0.8950  0.8694
13269SOL    HW241228   0.407   7.893   3.506 -0.0592 -0.8485  0.4579
13270SOL     OW41229   4.123   3.824   0.132  0.3734  0.1291  0.1215
13270SOL    HW141230   4.071   3.776   0.196  0.8498 -0.5016  0.0472
13270SOL    HW241231   4.208   3.838   0.175  1.2710 -1.7008 -0.9094
13271SOL     OW41232   5.200   3.303   3.321 -0.3510  0.5419  0.1417
13271SOL    HW141233   5.114   3.264   3.303  0.1847 -0.7055  0.1824
13271SOL    HW241234   5.232   3.257   3.398 -0.0371  1.6565  0.6900
13272SOL     OW41235   2.840   5.761   5.535  0.5143 -0.3251  0.1912
13272SOL    HW141236   2.787   5.719   5.467 -0.6928 -0.0629  0.9425
13272SOL    HW241237   2.805   5.727   5.617 -1.2169  2.8249  0.9091
13273SOL     OW41238   3.860   5.987   2.556  0.3417  0.0107  0.0271
13273SOL    HW141239   3.834   5.937   2.478 -2.9221  1.3517  0.0968
13273SOL    HW241240   3.845   5.926   2.629  0.3575 -0.2255 -0.1660
13274SOL     OW41241   7.318   7.402   7.555  0.1936 -0.1723  0.1196
13274SOL    HW141242   7.314   7.408   7.460  1.4307  0.3651  0.0751
13274SOL    HW241243   7.380   7.331   7.572  0.0473 -0.2079  0.5205
13275SOL     OW41244   0.231   0.322   5.441 -0.0687  0.4019 -0.3774
13275SOL    HW141245   0.281   0.403   5.451 -1.4007  1.3218 -0.8853
13275SOL    HW241246   0.164   0.325   5.509  0.8551 -1.0856  0.6598
13276SOL     OW41247   1.973   2.855   6.910 -0.7592 -0.2168 -0.2769
13276SOL    HW141248   1.938   2.944   6.915 -2.6036 -0.9654  1.6933
13276SOL    HW241249   2.010   2.839   6.997 -0.6791 -1.4692 -0.5230
13277SOL     OW41250   6.121   5.742   0.114  0.1209  0.2943  0.7455
13277SOL    HW141251   6.181   5.772   0.046  1.4080 -2.4103  0.5494
13277SOL    HW241252   6.034   5.765   0.081  0.8113  0.7250 -0.9041
13278SOL     OW41253   6.480   2.838   1.050 -0.1223 -0.1071  0.0650
13278SOL    HW141254   6.553   2.839   0.987 -1.3719  1.3173 -1.4487
13278SOL    HW241255   6.459   2.930   1.064 -0.5867 -0.4445  1.7917
13279SOL     OW41256   7.047   5.073   1.176  0.4931 -0.0793  0.1473
13279SOL    HW141257   7.057   5.138   1.246 -2.7929 -1.8833  2.5639
13279SOL    HW241258   7.087   4.993   1.211  0.1140 -0.6464 -0.6868
13280SOL     OW41259   6.995   5.796   3.891 -0.1053 -0.2418  0.0423
13280SOL    HW141260   6.914   5.767   3.934  1.1973 -1.7811  1.6164
13280SOL    HW241261   7.005   5.887   3.917 -0.9631 -0.2508  0.4471
13281SOL     OW41262   3.568   3.854   5.047 -0.6957 -0.3568  0.0440
13281SOL    HW141263   3.489   3.820   5.005  0.4886 -3.3418 -0.0203
13281SOL    HW241264   3.640   3.813   4.999  0.9723  2.3089  0.0611
13282SOL     OW41265   0.482   7.177   2.537 -0.4040  0.0732  0.2560
13282SOL    HW141266   0.567   7.131   2.537 -0.1271  0.5496 -0.8294
13282SOL    HW241267   0.495   7.250   2.598 -0.3251 -0.3543  0.7623
13283SOL     OW41268   4.527   3.613   6.765 -0.7967 -0.1576  0.2932
13283SOL    HW141269   4.610   3.655   6.789 -0.6823 -0.6037  0.6953
13283SOL    HW241270   4.468   3.634   6.838 -1.0815  0.2668 -0.0512
13284SOL     OW41271   0.429   3.718   4.168 -0.3033 -0.1541  0.4486
13284SOL    HW141272   0.465   3.735   4.081 -0.4006 -0.1036  0.4182
13284SOL    HW241273   0.337   3.696   4.152 -0.5807  0.8362  0.6218
13285SOL     OW41274   1.677   5.026   4.236  0.3132 -0.7420  0.1588
13285SOL    HW141275   1.732   4.951   4.260  3.0182  1.2900  0.8481
13285SOL    HW241276   1.589   5.000   4.261  1.1943 -3.5002  0.7816
13286SOL     OW41277   0.614   1.481   6.047  0.1362  0.0226  0.1374
13286SOL    HW141278   0.618   1.573   6.020  3.3689 -0.5594 -1.7823
13286SOL    HW241279   0.694   1.467   6.098  0.0205 -1.8785 -0.1199
13287SOL     OW41280   3.165   0.129   5.453  0.6412 -0.1433 -0.1235
13287SOL    HW141281   3.114   0.207   5.433  1.1187  0.0933 -0.4344
13287SOL    HW241282   3.232   0.126   5.385 -1.2100 -2.5164 -2.0212
13288SOL     OW41283   6.859   0.527   3.451 -0.1278 -0.2731 -0.1351
13288SOL    HW141284   6.765   0.540   3.438 -0.5282 -0.8403  1.7767
13288SOL    HW241285   6.864   0.467   3.526  1.7624 -0.4981 -0.4027
13289SOL     OW41286   5.769   3.188   7.282  0.6044 -0.0527  0.5923
13289SOL    HW141287   5.763   3.279   7.311 -1.4563 -0.0933  0.4392
13289SOL    HW241288   5.709   3.140   7.340 -0.1055 -0.8928 -0.7855
13290SOL     OW41289   6.982   7.309   7.087  0.1410  0.3021  0.0727
13290SOL    HW141290   6.987   7.304   7.183 -1.1429  0.1000  0.1476
13290SOL    HW241291   6.903   7.260   7.065  1.3355 -1.1476 -1.2373
13291SOL     OW41292   3.145   0.716   7.680  0.1666  0.1417 -0.6790
13291SOL    HW141293   3.105   0.714   7.767  1.3449  0.7513 -0.1032
13291SOL    HW241294   3.235   0.742   7.696  0.2911  0.6767 -2.1361
13292SOL     OW41295   6.610   1.232   5.254  0.2068  0.0643 -0.2455
13292SOL    HW141296   6.617   1.141   5.283  1.8938  0.3953  0.5115
13292SOL    HW241297   6.603   1.282   5.335  2.5001  0.8100 -0.4149
13293SOL     OW41298   6.911   5.813   4.282 -0.0836 -0.1637  0.2193
13293SOL    HW141299   6.843   5.879   4.274 -0.9530 -1.3049 -3.1008
13293SOL    HW241300   6.992   5.863   4.294 -1.1035  1.3141  1.1751
13294SOL     OW41301   1.347   5.013   7.555  0.0813  0.0985 -0.9397
13294SOL    HW141302   1.318   4.922   7.551  0.0375  0.1513 -2.3664
13294SOL    HW241303   1.269   5.063   7.581  0.0204 -0.2310 -0.4916
13295SOL     OW41304   1.812   2.118   4.101  0.3495  0.1065 -0.6148
13295SOL    HW141305   1.799   2.029   4.068  0.5582  0.3138 -1.2667
13295SOL    HW241306   1.844   2.106   4.190 -0.2550 -0.4646 -0.4653
13296SOL     OW41307   6.053   3.942   2.174 -0.4883  0.8594  0.1819
13296SOL    HW141308   6.020   3.852   2.163  0.4118  0.5572 -0.1537
13296SOL    HW241309   6.011   3.991   2.103  1.1645  0.0645 -1.4488
13297SOL     OW41310   7.329   6.887   4.349  0.0742  0.1487  0.3288
13297SOL    HW141311   7.290   6.962   4.305  0.9183  0.3068 -0.1791
13297SOL    HW241312   7.423   6.905   4.349  0.3639 -1.1909 -0.3769
13298SOL     OW41313   4.517   1.981   1.062 -0.1362  0.5569 -0.2977
13298SOL    HW141314   4.521   1.985   0.967 -0.8491  1.8934 -0.2807
13298SOL    HW241315   4.513   1.887   1.082 -1.2265  0.2997 -1.6301
13299SOL     OW41316   7.873   7.771   3.377  0.2978 -0.5119  0.1186
13299SOL    HW141317   7.921   7.828   3.316  0.0292 -0.8557 -0.4189
13299SOL    HW241318   7.940   7.743   3.440  0.1832  1.3703  1.1345
13300SOL     OW41319   6.002   2.572   2.889  0.0862 -0.9423  0.3367
13300SOL    HW141320   6.013   2.590   2.983 -1.6933 -0.6465  0.5267
13300SOL    HW241321   6.091   2.573   2.854  0.6364  2.5503  1.3915
13301SOL     OW41322   6.410   6.137   4.383 -0.0268 -0.3987 -0.0376
13301SOL    HW141323   6.337   6.077   4.366  0.0315 -1.2165  2.2719
13301SOL    HW241324   6.478   6.082   4.421  0.6239  0.8702  0.6932
13302SOL     OW41325   4.129   7.167   5.004 -0.3488 -0.1357  0.0997
13302SOL    HW141326   4.089   7.245   4.967 -2.7616 -1.4828 -0.3468
13302SOL    HW241327   4.094   7.162   5.093  1.4748  0.3831  0.8872
13303SOL     OW41328   7.276   6.359   2.064  0.2464  0.5800 -0.3222
13303SOL    HW141329   7.183   6.361   2.088  0.8561 -0.0699  2.4266
13303SOL    HW241330   7.320   6.402   2.136  2.2557 -1.0443 -0.4980
13304SOL     OW41331   6.369   3.911   0.595  0.0069 -0.1612  0.1224
13304SOL    HW141332   6.384   3.938   0.504  3.0466  0.3247  0.6419
13304SOL    HW241333   6.426   3.968   0.646  0.2931 -2.0664  2.0755
13305SOL     OW41334   1.451   1.392   0.748 -0.4255 -0.1620 -0.2476
13305SOL    HW141335   1.511   1.322   0.721 -0.3493 -0.6664  1.1361
13305SOL    HW241336   1.497   1.473   0.726 -0.3518 -0.5379 -1.5257
13306SOL     OW41337   6.466   3.128   1.005 -0.0281  0.7903  0.2361
13306SOL    HW141338   6.444   3.132   0.912 -0.2969 -3.7287 -0.1196
13306SOL    HW241339   6.561   3.141   1.008  0.1142  0.1360 -0.8255
13307SOL     OW41340   6.344   3.844   6.668 -0.3801 -0.1992 -0.1302
13307SOL    HW141341   6.338   3.923   6.615  2.2863 -0.8167 -1.4778
13307SOL    HW241342   6.416   3.861   6.729  0.9453 -1.9251 -1.1441
13308SOL     OW41343   1.496   5.803   0.673 -0.4315 -0.2668  0.0094
13308SOL    HW141344   1.446   5.740   0.725 -1.0272  0.2661  0.1023
13308SOL    HW241345   1.547   5.749   0.612 -3.1342 -0.8560 -1.9494
13309SOL     OW41346   2.553   4.398   2.716  0.0475  0.1051 -0.4188
13309SOL    HW141347   2.472   4.449   2.725  0.4699  0.3959  2.3485
13309SOL    HW241348   2.592   4.431   2.634 -1.8160  1.0936 -0.9811
13310SOL     OW41349   6.082   3.725   4.330 -0.1807  0.3432 -0.0189
13310SOL    HW141350   6.099   3.668   4.256 -3.4328  0.8235 -1.3134
13310SOL    HW241351   6.046   3.667   4.397  0.0229  0.3246  0.0733
13311SOL     OW41352   7.650   4.785   6.340  0.1243  0.2168  0.7119
13311SOL    HW141353   7.587   4.857   6.337  1.6682  1.6087  0.4520
13311SOL    HW241354   7.718   4.810   6.277  1.0634 -1.1252  1.1514
13312SOL     OW41355   7.948   1.461   2.369 -0.6142  0.5357  0.1842
13312SOL    HW141356   7.968   1.410   2.448  1.5087  1.8954  0.6277
13312SOL    HW241357   7.898   1.536   2.401  0.3727  1.1644  0.3242
13313SOL     OW41358   1.132   7.221   6.867  0.3556  0.7230 -0.6041
13313SOL    HW141359   1.057   7.171   6.835 -0.3830  0.8006  0.9062
13313SOL    HW241360   1.209   7.171   6.840 -0.3030 -0.1284 -0.9074
13314SOL     OW41361   1.015   7.900   0.743  0.5602 -0.5974  0.1562
13314SOL    HW141362   0.987   7.988   0.768 -1.2406 -0.9838 -0.3435
13314SOL    HW241363   1.075   7.914   0.669 -1.4354  0.1835 -1.4204
13315SOL     OW41364   3.145   3.536   2.680 -0.2572 -0.1586 -0.6486
13315SOL    HW141365   3.182   3.463   2.731  1.1361  1.0708  0.1890
13315SOL    HW241366   3.077   3.572   2.737  1.6882  1.5792  0.7223
13316SOL     OW41367   5.287   0.219   6.817 -0.1530  0.3942  0.1938
13316SOL    HW141368   5.247   0.304   6.840 -3.7366 -1.0262 -0.1168
13316SOL    HW241369   5.345   0.200   6.890 -2.3912  1.3356  2.3799
13317SOL     OW41370   2.711   6.754   3.701  0.0445 -0.3703 -0.3395
13317SOL    HW141371   2.751   6.704   3.630  0.1753  0.2324 -0.6909
13317SOL    HW241372   2.682   6.836   3.660  0.1077 -0.0237  0.2967
13318SOL     OW41373   6.851   4.741   6.191 -0.1382  0.3485 -0.0428
13318SOL    HW141374   6.893   4.747   6.277 -0.3662 -0.7934  0.1646
13318SOL    HW241375   6.924   4.729   6.130 -0.0601 -0.2168  0.1558
13319SOL     OW41376   0.798   5.616   6.259 -0.0119  0.0624  0.3743
13319SOL    HW141377   0.730   5.563   6.218  1.0050 -0.9473 -0.0843
13319SOL    HW241378   0.815   5.686   6.196 -2.4445  1.9419  1.6574
13320SOL     OW41379   5.866   0.906   6.995 -0.0010 -0.2273  0.5742
13320SOL    HW141380   5.866   0.857   7.077 -1.4161 -1.1472  0.0639
13320SOL    HW241381   5.874   0.998   7.021  3.2791 -0.6748  1.5191
13321SOL     OW41382   7.448   5.120   1.140  0.6296 -0.1972 -0.1956
13321SOL    HW141383   7.508   5.195   1.141  1.7484 -1.0775  0.0986
13321SOL    HW241384   7.400   5.127   1.223  2.3776 -1.0774  0.9456
13322SOL     OW41385   1.836   2.326   7.742 -0.5431 -0.2509  0.4539
13322SOL    HW141386   1.922   2.369   7.741 -0.5579 -0.1601  1.6446
13322SOL    HW241387   1.842   2.259   7.675 -0.1736  0.9481 -0.7564
13323SOL     OW41388   3.969   4.666   7.022 -0.3717  0.5328 -0.1259
13323SOL    HW141389   3.930   4.636   7.105 -2.0154  0.8046 -0.7567
13323SOL    HW241390   4.062   4.646   7.031 -0.3955  1.1283  2.0326
13324SOL     OW41391   4.657   6.057   7.472 -0.3822  0.6514 -0.0421
13324SOL    HW141392   4.670   5.963   7.458 -0.4719  0.8062 -1.2674
13324SOL    HW241393   4.648   6.093   7.384 -0.9351  1.7297  0.4373
13325SOL     OW41394   5.662   7.142   5.179 -0.4797  0.1053 -0.3528
13325SOL    HW141395   5.669   7.185   5.264 -0.8188  0.0253 -0.2843
13325SOL    HW241396   5.568   7.136   5.163 -0.4461 -0.9278 -0.1956
13326SOL     OW41397   4.795   4.458   0.819 -0.0902  0.0196  0.1474
13326SOL    HW141398   4.799   4.439   0.725 -0.1639 -0.1604  0.1793
13326SOL    HW241399   4.713   4.418   0.848  0.4770 -0.9272  0.5085
13327SOL     OW41400   3.414   4.564   0.922  0.6782  0.0750 -0.0491
13327SOL    HW141401   3.435   4.657   0.916  2.3213 -0.2247  0.5654
13327SOL    HW241402   3.483   4.520   0.872 -1.5022 -0.7287 -2.5841
13328SOL     OW41403   2.436   5.299   1.243  0.3006  0.1737  0.6420
13328SOL    HW141404   2.470   5.351   1.171 -0.6381 -0.0912 -0.0074
13328SOL    HW241405   2.468   5.210   1.226 -3.2091 -0.8204 -1.7896
13329SOL     OW41406   2.821   3.147   4.075 -0.2688 -0.1053  0.0992
13329SOL    HW141407   2.911   3.131   4.047 -0.2618 -1.6223  0.8875
13329SOL    HW241408   2.810   3.093   4.154 -0.7905  2.7045  2.1122
13330SOL     OW41409   0.210   0.152   5.019 -0.0823 -0.2889 -0.4684
13330SOL    HW141410   0.131   0.122   4.974 -1.1251 -0.3606  1.3464
13330SOL    HW241411   0.277   0.089   4.995 -1.2734 -1.8497  0.1727
13331SOL     OW41412   4.850   3.885   2.667 -0.0337 -0.5897 -0.4714
13331SOL    HW141413   4.775   3.900   2.610  1.0543  0.7554 -1.6545
13331SOL    HW241414   4.823   3.916   2.753 -0.6733  0.3511 -0.9983
13332SOL     OW41415   1.244   6.307   4.763 -0.2013 -0.1658  0.1704
13332SOL    HW141416   1.198   6.389   4.747  0.3636  0.1206 -0.0125
13332SOL    HW241417   1.332   6.334   4.791 -0.4289 -0.6834  1.4605
13333SOL     OW41418   7.720   0.575   3.701  0.5466 -0.1132  0.3175
13333SOL    HW141419   7.752   0.519   3.772  0.9509  1.3891  1.3783
13333SOL    HW241420   7.716   0.663   3.740 -1.2034  0.4085 -0.9266
13334SOL     OW41421   7.697   0.357   4.239 -0.0681 -0.2426 -0.2041
13334SOL    HW141422   7.660   0.365   4.326  1.4962 -0.0802  0.4857
13334SOL    HW241423   7.632   0.308   4.189 -0.9618 -0.3823  1.0676
13335SOL     OW41424   4.192   6.064   3.614 -1.0318  0.0046 -0.0415
13335SOL    HW141425   4.110   6.027   3.645 -1.0139  1.1107  1.4176
13335SOL    HW241426   4.258   6.029   3.674 -0.2890 -1.4615 -1.6391
13336SOL     OW41427   7.854   2.366   0.499  0.3503  0.0759  0.6426
13336SOL    HW141428   7.840   2.291   0.441  1.4686 -0.2099  0.7335
13336SOL    HW241429   7.829   2.335   0.586  0.9320 -0.2293  0.6999
13337SOL     OW41430   7.050   4.119   5.997 -0.4104 -0.0025  0.3216
13337SOL    HW141431   6.989   4.060   5.952 -0.3832  0.2006  0.0111
13337SOL    HW241432   6.999   4.157   6.069 -1.0490  1.1295 -0.6856
13338SOL     OW41433   3.331   6.635   7.571  0.6255 -0.3882 -0.3474
13338SOL    HW141434   3.385   6.556   7.576 -0.1868 -0.9503 -0.3194
13338SOL    HW241435   3.324   6.664   7.662  0.9084 -0.2935 -0.3545
13339SOL     OW41436   5.023   3.183   0.846  0.1083  0.2265  0.0546
13339SOL    HW141437   5.082   3.190   0.771  0.6724 -3.2748  0.0257
13339SOL    HW241438   5.077   3.209   0.921  0.7345  0.0500 -0.3260
13340SOL     OW41439   6.037   4.835   2.950 -0.0701  0.0567 -0.7101
13340SOL    HW141440   6.026   4.882   3.033 -0.6839  2.4021 -2.0241
13340SOL    HW241441   6.077   4.752   2.975  2.4374  1.7991  1.6677
13341SOL     OW41442   3.486   2.328   7.025  0.3440  0.1468  0.0175
13341SOL    HW141443   3.481   2.411   7.073 -0.0423  0.5228 -0.6638
13341SOL    HW241444   3.428   2.269   7.074 -0.9064  0.8347 -0.5658
13342SOL     OW41445   2.637   0.301   6.605 -0.0377 -0.2297  0.5209
13342SOL    HW141446   2.706   0.236   6.615 -1.1287 -1.6685 -0.9625
13342SOL    HW241447   2.577   0.284   6.678  0.2032 -0.1990  0.7275
13343SOL     OW41448   4.967   2.490   2.699  0.4218 -0.2024 -0.7698
13343SOL    HW141449   4.883   2.492   2.744  1.7672  1.7313  1.9012
13343SOL    HW241450   4.979   2.398   2.675 -1.0187 -1.1241  1.6737
13344SOL     OW41451   5.262   0.008   1.685  0.3672 -0.3035  0.3535
13344SOL    HW141452   5.357   0.009   1.690  0.7193  1.7164 -3.1453
13344SOL    HW241453   5.242  -0.056   1.616 -0.5602  0.7704 -0.4235
13345SOL     OW41454   6.103   2.947   6.193 -0.1080 -0.2515 -0.1639
13345SOL    HW141455   6.161   2.914   6.124  0.9519  0.7517  0.2278
13345SOL    HW241456   6.158   2.955   6.270 -0.0469  3.1245 -0.4040
13346SOL     OW41457   1.375   0.956   7.979  0.2327  0.1350 -0.1320
13346SOL    HW141458   1.466   0.983   7.992  0.2251 -0.5602  1.6644
13346SOL    HW241459   1.379   0.860   7.977 -0.0730  0.0589 -3.6350
13347SOL     OW41460   6.185   7.237   0.798  0.0890 -0.0908  0.0680
13347SOL    HW141461   6.251   7.184   0.842 -0.6573 -1.3894 -0.3396
13347SOL    HW241462   6.102   7.207   0.833 -0.3446  1.0539  0.0693
13348SOL     OW41463   4.254   3.283   5.299  0.3422 -0.1422 -0.8317
13348SOL    HW141464   4.309   3.258   5.373 -0.9419 -3.9049 -0.9306
13348SOL    HW241465   4.192   3.347   5.336  1.2905 -0.0421  0.6569
13349SOL     OW41466   3.382   7.672   8.048  0.6414 -1.1794 -0.3267
13349SOL    HW141467   3.341   7.664   8.134 -1.2868 -0.3676 -1.1094
13349SOL    HW241468   3.436   7.751   8.054 -1.2981  0.2398 -0.4730
13350SOL     OW41469   5.987   2.429   0.840 -0.6312  0.0609 -0.5841
13350SOL    HW141470   5.965   2.466   0.925 -0.1374  0.4821 -0.6382
13350SOL    HW241471   6.066   2.475   0.813  1.1882 -2.3824  0.2309
13351SOL     OW41472   0.608   4.025   5.925  0.4015 -0.5284 -0.5380
13351SOL    HW141473   0.653   3.965   5.865 -1.1520 -2.2520 -0.0677
13351SOL    HW241474   0.554   4.080   5.868  3.3372  2.0124 -1.1826
13352SOL     OW41475   5.827   4.655   0.404 -0.6791 -0.1076  0.4547
13352SOL    HW141476   5.858   4.736   0.362 -1.9312  0.3139  0.3071
13352SOL    HW241477   5.906   4.600   0.411  0.2683  1.2450  0.8759
13353SOL     OW41478   1.282   7.462   4.745 -0.1195 -0.0460  0.0455
13353SOL    HW141479   1.252   7.546   4.711 -0.2558 -0.6086 -1.2730
13353SOL    HW241480   1.212   7.434   4.804 -1.9226 -0.9586 -2.3602
13354SOL     OW41481   0.865   1.401   1.024 -0.1408 -0.0158 -0.1113
13354SOL    HW141482   0.956   1.415   1.051 -0.6878  0.9875  1.2727
13354SOL    HW241483   0.814   1.461   1.078 -1.8262 -1.8514  0.4538
13355SOL     OW41484   3.431   4.876   3.106 -0.2700  0.0165  0.3789
13355SOL    HW141485   3.444   4.814   3.034 -1.2696  0.8184 -0.5355
13355SOL    HW241486   3.369   4.940   3.071 -0.5819  0.5744  1.8780
13356SOL     OW41487   5.575   2.939   4.674  0.1187  0.7002 -0.0733
13356SOL    HW141488   5.538   3.025   4.695 -0.8080  0.2577  0.1817
13356SOL    HW241489   5.554   2.885   4.750 -0.2375 -0.0235 -0.6660
13357SOL     OW41490   4.688   4.338   3.354 -0.0880  0.0966 -0.2580
13357SOL    HW141491   4.782   4.324   3.346  0.2382  1.3129  1.0662
13357SOL    HW241492   4.672   4.346   3.448 -1.9661 -2.8319 -0.2147
13358SOL     OW41493   1.966   4.746   1.948 -0.3378 -0.0424  0.3815
13358SOL    HW141494   1.922   4.671   1.909 -1.7115  0.5851  0.6965
13358SOL    HW241495   1.896   4.799   1.986  0.6255  1.2865  0.3761
13359SOL     OW41496   1.395   6.321   5.263 -0.3549 -0.1046 -0.1947
13359SOL    HW141497   1.480   6.300   5.225 -0.1991  1.3346 -0.6722
13359SOL    HW241498   1.336   6.254   5.227 -0.0610  0.7231 -2.3907
13360SOL     OW41499   4.005   6.833   2.418  0.7284  0.4626 -0.1945
13360SOL    HW141500   4.066   6.893   2.375  1.6135 -0.3881 -0.1665
13360SOL    HW241501   3.981   6.877   2.500  1.3735  0.7656 -0.1630
13361SOL     OW41502   0.709   2.067   6.294  0.1178 -0.5266 -0.4692
13361SOL    HW141503   0.770   2.135   6.320 -1.9372  0.6267  1.7105
13361SOL    HW241504   0.671   2.036   6.376 -0.1419 -3.2833 -1.5059
13362SOL     OW41505   1.311   3.300   7.631 -0.3882  0.0987  0.1343
13362SOL    HW141506   1.252   3.341   7.694 -1.6363  0.4819 -1.1966
13362SOL    HW241507   1.392   3.285   7.679 -0.6546  2.0477  1.3062
13363SOL     OW41508   4.181   2.046   3.578 -0.0345 -0.4472 -0.4971
13363SOL    HW141509   4.101   2.099   3.571  0.3839  0.6256  1.8618
13363SOL    HW241510   4.250   2.104   3.545  0.4992  0.8424  2.5402
13364SOL     OW41511   4.546   1.486   3.706  0.3677 -0.3272 -0.3039
13364SOL    HW141512   4.621   1.546   3.704 -0.2724  0.5852  1.1592
13364SOL    HW241513   4.485   1.522   3.642  0.4132  0.0081 -0.1647
13365SOL     OW41514   1.990   0.183   1.666  0.2124  0.0563 -0.1333
13365SOL    HW141515   2.045   0.187   1.588 -0.2012 -0.7064 -0.4688
13365SOL    HW241516   1.903   0.158   1.634 -0.6472  2.2803  0.2438
13366SOL     OW41517   7.580   5.843   4.555 -0.5813  0.2575 -0.0851
13366SOL    HW141518   7.631   5.922   4.572 -1.3234  1.0233 -1.3494
13366SOL    HW241519   7.501   5.873   4.511 -1.0290 -1.1598 -0.3185
13367SOL     OW41520   2.488   5.993   4.812 -0.0093 -0.8005 -0.4826
13367SOL    HW141521   2.415   6.017   4.755  0.0629 -0.2569 -0.3491
13367SOL    HW241522   2.482   6.053   4.886  0.7976 -0.4845 -0.6586
13368SOL     OW41523   2.753   1.474   1.677  0.2117 -0.4114  0.3662
13368SOL    HW141524   2.702   1.431   1.746  0.5346  0.0890  0.9298
13368SOL    HW241525   2.812   1.532   1.725  1.9422 -1.6199 -0.1923
13369SOL     OW41526   4.431   1.509   6.696  0.2807 -0.2876 -0.2287
13369SOL    HW141527   4.396   1.573   6.759 -0.0147 -1.1919  0.5479
13369SOL    HW241528   4.513   1.479   6.736 -0.2905 -1.4398  0.1437
13370SOL     OW41529   5.437   6.827   7.643  0.1957  0.1290 -0.2110
13370SOL    HW141530   5.380   6.863   7.710 -1.1088 -0.3250 -1.0433
13370SOL    HW241531   5.519   6.876   7.652 -0.2684  0.6958  1.0949
13371SOL     OW41532   5.612   5.248   4.693  0.1175 -0.3305  0.2730
13371SOL    HW141533   5.600   5.183   4.624  1.7408 -0.6844  0.2710
13371SOL    HW241534   5.586   5.203   4.773 -0.4356 -0.3837  0.0684
13372SOL     OW41535   7.392   0.332   8.025  0.2718 -0.1426  0.8607
13372SOL    HW141536   7.440   0.289   8.095 -1.3500  3.0489  4.2908
13372SOL    HW241537   7.454   0.395   7.988  0.6290 -0.6641  0.5588
13373SOL     OW41538   7.166   0.909   4.603 -0.2707 -0.3029  0.2835
13373SOL    HW141539   7.083   0.868   4.578 -0.9016  1.8274 -1.4835
13373SOL    HW241540   7.160   0.920   4.697 -1.3558 -1.4529  0.3848
13374SOL     OW41541   5.716   5.002   7.749  0.0715 -0.1313  0.2376
13374SOL    HW141542   5.622   4.987   7.754  0.3321 -1.6665  1.2403
13374SOL    HW241543   5.728   5.092   7.779 -1.2477  1.0041 -2.2570
13375SOL     OW41544   1.091   7.959   1.354 -0.1143 -0.3154 -0.0685
13375SOL    HW141545   1.125   7.991   1.438  2.7442  0.1630 -1.2887
13375SOL    HW241546   1.168   7.955   1.297 -1.9221 -0.7992 -2.6439
13376SOL     OW41547   3.671   7.017   5.890 -0.4908  0.1833 -0.0429
13376SOL    HW141548   3.744   6.969   5.928 -0.8297  0.0785  0.4877
13376SOL    HW241549   3.646   7.080   5.957 -2.0282 -0.9684  0.5275
13377SOL     OW41550   2.334   0.536   8.021 -0.5036 -0.0032 -0.0859
13377SOL    HW141551   2.365   0.460   8.070 -0.5531  0.9622  1.5220
13377SOL    HW241552   2.413   0.577   7.987 -0.3625  0.0069  0.2502
13378SOL     OW41553   7.980   4.481   4.556 -0.3568 -0.1838  0.2225
13378SOL    HW141554   7.892   4.504   4.527 -0.6834 -1.8569 -0.2101
13378SOL    HW241555   8.000   4.400   4.510  1.4570  0.2020  0.2610
13379SOL     OW41556   6.915   1.055   3.810 -0.9131 -0.3359 -0.4406
13379SOL    HW141557   6.860   1.051   3.888  0.0697  2.0234  0.4762
13379SOL    HW241558   6.994   1.005   3.833 -0.1097  1.3099  0.6262
13380SOL     OW41559   6.086   7.481   4.049  0.1783 -0.2510  0.6911
13380SOL    HW141560   6.172   7.487   4.008 -0.0573 -1.3968 -0.0257
13380SOL    HW241561   6.069   7.568   4.084  2.1123 -0.2841  1.8247
13381SOL     OW41562   4.961   1.540   4.724  0.0302  0.3670  0.0905
13381SOL    HW141563   4.976   1.447   4.741  0.5221  0.1906 -1.2264
13381SOL    HW241564   4.867   1.552   4.740  0.2358 -0.0023  1.7499
13382SOL     OW41565   5.310   2.161   6.348 -0.9488  0.5392 -0.1144
13382SOL    HW141566   5.221   2.131   6.368 -1.1442  0.1479 -1.4891
13382SOL    HW241567   5.298   2.225   6.277 -0.0136 -0.7957 -1.5242
13383SOL     OW41568   2.039   3.239   1.907  0.6112  0.2977 -0.1882
13383SOL    HW141569   2.028   3.308   1.973 -0.7357 -0.2263  0.1914
13383SOL    HW241570   2.115   3.266   1.856  0.7715  1.4998  0.6287
13384SOL     OW41571   3.759   7.242   6.752 -0.0165 -0.3577  0.7376
13384SOL    HW141572   3.776   7.161   6.704  1.3451  0.2358  0.1663
13384SOL    HW241573   3.837   7.255   6.806 -0.0847  0.7247  0.6086
13385SOL     OW41574   7.255   6.010   2.796 -0.4245  0.0354  0.0393
13385SOL    HW141575   7.297   6.053   2.870  0.8225 -2.1334  0.7054
13385SOL    HW241576   7.250   5.918   2.822 -2.3409 -0.3738 -1.5463
13386SOL     OW41577   2.018   4.745   5.508 -0.0919 -0.0190  0.3499
13386SOL    HW141578   2.059   4.775   5.589 -1.0632  1.4400  0.3471
13386SOL    HW241579   2.076   4.775   5.439 -0.2958  0.5517  0.4222
13387SOL     OW41580   3.574   3.226   7.164  0.0154 -0.1665 -0.5221
13387SOL    HW141581   3.566   3.278   7.084  0.2499 -0.6676 -0.8765
13387SOL    HW241582   3.486   3.223   7.200  0.0397  0.6673 -0.3718
13388SOL     OW41583   4.111   3.696   7.947  0.2565  0.7041 -0.3724
13388SOL    HW141584   4.112   3.731   8.036 -0.8096 -1.5943  0.6384
13388SOL    HW241585   4.088   3.770   7.892 -0.4412  1.8933  1.4280
13389SOL     OW41586   5.176   7.268   1.609  0.8975  0.0259 -0.0690
13389SOL    HW141587   5.144   7.183   1.639 -0.0294  0.3042 -0.2170
13389SOL    HW241588   5.245   7.248   1.547 -0.3721 -0.6851 -1.3101
13390SOL     OW41589   1.240   7.443   0.912  0.5999 -0.7867 -0.6725
13390SOL    HW141590   1.216   7.488   0.831  0.9185 -1.1495 -0.9660
13390SOL    HW241591   1.241   7.513   0.978 -1.1444 -0.7213 -0.6506
13391SOL     OW41592   2.419   3.084   4.445 -0.2346  0.0161  0.5598
13391SOL    HW141593   2.500   3.101   4.396  0.2053 -1.0584  0.8819
13391SOL    HW241594   2.384   3.171   4.464 -0.1610  0.4760 -1.2341
13392SOL     OW41595   5.296   0.245   2.855 -0.8305 -0.0914  0.4537
13392SOL    HW141596   5.341   0.236   2.939  0.6794  0.8091 -0.2170
13392SOL    HW241597   5.271   0.338   2.851 -0.7377 -0.0870 -0.1554
13393SOL     OW41598   3.209   7.439   5.334  0.0536  0.3780 -0.2481
13393SOL    HW141599   3.284   7.498   5.328  0.8517 -0.7174 -1.3072
13393SOL    HW241600   3.133   7.494   5.315  0.5777  1.4501  0.6269
13394SOL     OW41601   6.909   2.781   0.439  0.3205  0.8324 -0.4215
13394SOL    HW141602   6.911   2.828   0.523  1.4255  0.9404 -0.4909
13394SOL    HW241603   6.881   2.846   0.375  2.8268  1.7607 -0.6915
13395SOL     OW41604   2.778   4.093   2.543  0.3807 -0.0686  0.0954
13395SOL    HW141605   2.868   4.117   2.523  1.1570 -2.5794  0.2543
13395SOL    HW241606   2.757   4.025   2.479 -0.3107 -1.6470  1.8974
13396SOL     OW41607   7.563   1.433   3.772  0.0562  0.1770  0.0648
13396SOL    HW141608   7.617   1.481   3.834  2.2843 -0.8648 -0.9779
13396SOL    HW241609   7.516   1.369   3.825  0.0591  0.8931  0.9508
13397SOL     OW41610   2.773   6.479   0.841  0.3184 -0.4660 -0.2902
13397SOL    HW141611   2.713   6.432   0.784  0.1873 -0.6252 -0.0208
13397SOL    HW241612   2.717   6.518   0.907  0.6319 -1.8049  0.8100
13398SOL     OW41613   5.537   7.337   3.726  0.6357 -0.3969  0.5649
13398SOL    HW141614   5.535   7.433   3.729 -2.0784 -0.3172 -1.1019
13398SOL    HW241615   5.586   7.316   3.646  2.0991 -0.4972  1.4412
13399SOL     OW41616   5.314   6.379   8.033 -0.0380 -0.1833 -0.1780
13399SOL    HW141617   5.390   6.326   8.057 -0.2485 -1.1870 -1.5956
13399SOL    HW241618   5.239   6.327   8.061 -0.2405 -0.4970 -1.2605
13400SOL     OW41619   1.235   5.507   7.397  0.1000 -0.1521 -0.1024
13400SOL    HW141620   1.264   5.476   7.483 -1.5766 -0.5131  0.3778
13400SOL    HW241621   1.178   5.581   7.416 -0.1605 -0.1373 -0.9180
13401SOL     OW41622   6.227   6.974   4.133 -0.1333  0.3432  0.3149
13401SOL    HW141623   6.248   6.941   4.221 -0.4712  3.0974  1.5182
13401SOL    HW241624   6.260   7.064   4.132 -1.8892  1.0512 -1.6853
13402SOL     OW41625   5.361   7.752   7.197  0.1111  0.0240  0.1227
13402SOL    HW141626   5.295   7.703   7.147 -2.0949  1.5787  1.3779
13402SOL    HW241627   5.357   7.841   7.162  0.9065  0.3571  0.8356
13403SOL     OW41628   4.029   5.720   3.771  0.3984 -0.4107  0.2224
13403SOL    HW141629   4.022   5.815   3.759 -0.0755 -0.2929  1.2885
13403SOL    HW241630   3.978   5.683   3.699  0.2971  0.1605 -0.0026
13404SOL     OW41631   0.683   7.641   4.373 -0.0502 -0.5835  0.0969
13404SOL    HW141632   0.774   7.669   4.367  0.1487 -0.7891  1.6128
13404SOL    HW241633   0.651   7.640   4.283  1.4870 -0.6389 -0.4662
13405SOL     OW41634   5.856   7.557   6.915 -0.3242 -0.1942  0.1504
13405SOL    HW141635   5.854   7.526   6.824 -2.4248 -0.1018  0.1217
13405SOL    HW241636   5.805   7.637   6.914  2.4565  1.7242  0.8258
13406SOL     OW41637   5.015   4.935   7.174 -0.1825  0.0459 -0.3384
13406SOL    HW141638   4.959   5.008   7.148  0.7258  1.1107  0.5870
13406SOL    HW241639   5.104   4.967   7.162  0.2339 -0.7783  0.4209
13407SOL     OW41640   5.868   6.347   7.467  0.0681 -0.0431  0.1195
13407SOL    HW141641   5.857   6.339   7.562 -0.9626  1.1742  0.1259
13407SOL    HW241642   5.870   6.441   7.451  0.2456 -0.2361 -1.0673
13408SOL     OW41643   1.691   5.686   5.784 -0.3869  0.4646 -0.4578
13408SOL    HW141644   1.659   5.734   5.860  1.9277  1.1001  0.2200
13408SOL    HW241645   1.662   5.737   5.709 -1.0914  0.8872  0.0927
13409SOL     OW41646   5.240   3.421   3.081  0.1676  0.4157  0.0496
13409SOL    HW141647   5.237   3.379   3.167  1.6185  0.4593  0.1571
13409SOL    HW241648   5.248   3.515   3.101 -1.5048  0.6305 -0.1744
13410SOL     OW41649   1.661   1.390   2.856  0.0127  0.3478 -0.2829
13410SOL    HW141650   1.599   1.462   2.867 -0.6756 -0.1757 -0.6669
13410SOL    HW241651   1.666   1.377   2.761  1.1618  0.7626 -0.2926
13411SOL     OW41652   3.233   2.916   2.027 -0.1112  0.1281 -0.1451
13411SOL    HW141653   3.175   2.839   2.035 -0.3165  0.2640 -0.3174
13411SOL    HW241654   3.217   2.948   1.938 -0.9057  1.0705  0.3143
13412SOL     OW41655   7.767   3.756   5.473 -0.0797 -0.4694 -0.5795
13412SOL    HW141656   7.836   3.786   5.414  1.7470  0.4002  1.8590
13412SOL    HW241657   7.701   3.825   5.469  0.2290 -0.1954 -1.2301
13413SOL     OW41658   4.152   0.243   3.868 -0.3582 -0.0745 -0.3553
13413SOL    HW141659   4.216   0.185   3.909 -0.6665 -0.5291 -0.5093
13413SOL    HW241660   4.161   0.326   3.914  0.5212 -0.0573 -0.5382
13414SOL     OW41661   7.279   7.594   4.883  0.1185  0.2661  0.0758
13414SOL    HW141662   7.236   7.527   4.830 -0.5950  1.2989 -0.6970
13414SOL    HW241663   7.292   7.553   4.969 -0.5272 -0.7609 -0.3084
13415SOL     OW41664   5.211   6.452   4.344  0.4315  0.0684  0.2644
13415SOL    HW141665   5.268   6.448   4.421  0.1560 -1.4326  0.4224
13415SOL    HW241666   5.133   6.402   4.369  0.1878 -0.1410 -0.8614
13416SOL     OW41667   4.961   1.721   1.350  0.1149  0.2708  0.4660
13416SOL    HW141668   4.927   1.645   1.303  1.0197  1.0547 -1.5774
13416SOL    HW241669   4.897   1.737   1.419  1.0217 -3.7272  2.5431
13417SOL     OW41670   4.118   5.665   0.132 -0.9413 -0.1890 -0.4437
13417SOL    HW141671   4.068   5.586   0.111 -1.0439  0.6831 -3.9344
13417SOL    HW241672   4.202   5.653   0.089 -0.6855  1.2760 -0.4111
13418SOL     OW41673   4.733   3.471   2.911 -0.1959 -0.0961  0.0928
13418SOL    HW141674   4.759   3.446   2.822 -0.8830 -3.1848  0.6512
13418SOL    HW241675   4.810   3.451   2.965 -0.7304 -0.9832  0.5518
13419SOL     OW41676   3.429   7.296   2.429  0.2893 -0.0780 -0.0054
13419SOL    HW141677   3.366   7.368   2.431  1.6637  1.1675 -0.0753
13419SOL    HW241678   3.398   7.237   2.498  0.2660  1.6063  1.5319
13420SOL     OW41679   4.850   6.172   1.454  0.1462 -0.2553  0.2013
13420SOL    HW141680   4.886   6.160   1.542 -1.0257 -4.5256  0.3347
13420SOL    HW241681   4.756   6.183   1.468 -0.0577 -1.0440 -0.4552
13421SOL     OW41682   0.287   7.499   1.320 -0.2482 -0.1655  0.3867
13421SOL    HW141683   0.359   7.552   1.285  1.0040 -0.5957  2.2101
13421SOL    HW241684   0.223   7.564   1.350 -1.6454  0.2422 -2.9858
13422SOL     OW41685   3.956   5.962   1.152  0.1540  0.3645 -0.1869
13422SOL    HW141686   3.927   5.877   1.187  1.1831  0.0325 -0.1135
13422SOL    HW241687   3.979   6.013   1.230  0.2410  0.4490 -0.2673
13423SOL     OW41688   7.157   0.951   5.402  0.8028 -1.1519 -0.0358
13423SOL    HW141689   7.214   1.026   5.382  0.8396 -0.8307  1.2424
13423SOL    HW241690   7.206   0.876   5.370  1.1247 -0.7117 -0.6120
13424SOL     OW41691   7.285   0.617   5.970  0.0588  0.3055 -0.4727
13424SOL    HW141692   7.313   0.690   5.914  0.0500 -0.0874 -1.0049
13424SOL    HW241693   7.315   0.640   6.058  0.4954  0.7178 -0.7255
13425SOL     OW41694   0.433   1.200   7.090 -0.0500  0.6287 -0.9417
13425SOL    HW141695   0.454   1.160   7.006  0.6984 -0.6894 -0.1608
13425SOL    HW241696   0.352   1.248   7.074  0.5709  1.1912 -2.6400
13426SOL     OW41697   5.776   0.477   3.051 -0.5762 -0.4521  0.3300
13426SOL    HW141698   5.833   0.547   3.084  0.7410 -1.9013  1.2803
13426SOL    HW241699   5.757   0.502   2.960  1.0437  0.4141  0.1930
13427SOL     OW41700   5.361   6.731   5.660 -0.7634 -0.0230  0.3998
13427SOL    HW141701   5.269   6.713   5.680 -0.8253 -1.1452 -0.7719
13427SOL    HW241702   5.392   6.651   5.618  0.8555  0.2094  1.1011
13428SOL     OW41703   6.818   3.001   5.376  0.3269 -0.3091  0.0033
13428SOL    HW141704   6.873   3.023   5.300  0.4200 -0.1088  0.1307
13428SOL    HW241705   6.809   2.906   5.371 -2.0748 -0.0986 -1.9483
13429SOL     OW41706   1.188   4.610   3.412  0.5964  0.3886  0.5038
13429SOL    HW141707   1.228   4.624   3.326 -1.2193  0.5393 -0.3491
13429SOL    HW241708   1.161   4.697   3.440 -0.5774  0.1003  0.3150
13430SOL     OW41709   5.308   3.991   6.909  0.1285 -0.2306 -0.0066
13430SOL    HW141710   5.276   4.012   6.821 -1.5876  0.1254  0.6651
13430SOL    HW241711   5.231   3.957   6.955  0.7607  0.4927  1.6476
13431SOL     OW41712   2.111   2.436   4.200  0.1906  0.1299 -0.3142
13431SOL    HW141713   2.204   2.440   4.222  0.3351 -0.9516 -0.6773
13431SOL    HW241714   2.106   2.472   4.111  0.2891 -0.0453 -0.3894
13432SOL     OW41715   1.667   1.178   0.599 -0.6567  0.6746  0.6662
13432SOL    HW141716   1.671   1.273   0.590  1.0376  0.5264 -0.5758
13432SOL    HW241717   1.614   1.149   0.525 -1.1521  0.6361  1.0308
13433SOL     OW41718   0.475   5.232   0.975  0.5594  0.2004 -0.0556
13433SOL    HW141719   0.402   5.201   1.030  0.0932  0.8706 -0.2886
13433SOL    HW241720   0.468   5.327   0.976  0.5244  0.2309 -1.2927
13434SOL     OW41721   5.819   7.568   7.688 -0.0185 -0.7032 -0.0827
13434SOL    HW141722   5.734   7.553   7.647 -0.1440 -1.9307  0.5672
13434SOL    HW241723   5.882   7.557   7.616 -0.4335  1.7382 -0.9157
13435SOL     OW41724   6.268   1.024   4.973  0.1851  1.0207 -0.3356
13435SOL    HW141725   6.287   0.956   5.037  0.2472  1.8406  0.5429
13435SOL    HW241726   6.297   1.105   5.015 -0.6671  1.6945 -1.0058
13436SOL     OW41727   6.704   3.229   6.640  0.2096  0.8043  0.2962
13436SOL    HW141728   6.643   3.161   6.666 -0.9170  1.1960 -1.1896
13436SOL    HW241729   6.667   3.310   6.677  0.1951  0.9518 -0.0388
13437SOL     OW41730   7.108   2.393   1.048  0.2877  0.5548 -0.2822
13437SOL    HW141731   7.034   2.337   1.070  1.5220 -1.3167 -0.7070
13437SOL    HW241732   7.182   2.358   1.097  1.2063  1.5645 -0.8695
13438SOL     OW41733   4.100   0.779   2.599  0.0972 -0.3267 -0.3656
13438SOL    HW141734   4.165   0.790   2.668  1.6165  0.7473 -1.8732
13438SOL    HW241735   4.134   0.707   2.546 -0.1090 -0.0027 -0.9544
13439SOL     OW41736   6.376   1.515   2.780  0.3683  0.2064  0.3173
13439SOL    HW141737   6.442   1.449   2.760 -0.0614 -0.0791 -0.1706
13439SOL    HW241738   6.406   1.553   2.863  1.4126  0.4412 -0.1529
13440SOL     OW41739   4.387   6.740   6.910 -0.1007  0.1868 -0.2125
13440SOL    HW141740   4.397   6.781   6.823 -1.0390  1.0676  0.0761
13440SOL    HW241741   4.402   6.647   6.894  1.0641  0.4938 -1.0759
13441SOL     OW41742   7.099   1.821   3.729  0.1796 -0.1446 -0.3547
13441SOL    HW141743   7.165   1.860   3.672 -0.9141 -1.0367 -2.3640
13441SOL    HW241744   7.061   1.751   3.676 -2.5927  0.5380  0.5500
13442SOL     OW41745   7.024   0.612   0.458 -0.3205 -0.1080  0.5372
13442SOL    HW141746   7.056   0.639   0.544  2.1165 -1.2409  0.0885
13442SOL    HW241747   7.015   0.694   0.409  0.9987  0.3660  1.0444
13443SOL     OW41748   4.308   0.146   1.201 -1.0755  0.4936  0.1122
13443SOL    HW141749   4.227   0.116   1.159  0.5219 -2.2058 -1.3450
13443SOL    HW241750   4.320   0.085   1.274  0.9474 -1.0708 -1.3701
13444SOL     OW41751   1.405   7.390   5.123 -0.5798  0.4746 -0.5696
13444SOL    HW141752   1.416   7.473   5.169 -0.2655  0.6697 -0.9899
13444SOL    HW241753   1.319   7.395   5.081  0.0624  1.2254 -1.8619
13445SOL     OW41754   0.345   7.220   7.652  0.5412 -0.3009 -0.6466
13445SOL    HW141755   0.368   7.310   7.674 -0.0787  0.3144 -2.3376
13445SOL    HW241756   0.307   7.184   7.732 -0.2734  1.3193 -0.2678
13446SOL     OW41757   0.792   2.323   2.853 -0.0530 -0.1383 -1.0983
13446SOL    HW141758   0.705   2.287   2.838 -1.2173  2.5259 -1.4348
13446SOL    HW241759   0.791   2.408   2.808  1.8137  1.1109  0.9901
13447SOL     OW41760   3.538   1.773   3.870 -0.5696  0.4200  0.2279
13447SOL    HW141761   3.519   1.866   3.858 -1.0344  0.2719 -0.1994
13447SOL    HW241762   3.617   1.772   3.924  1.0391  1.0933 -1.9958
13448SOL     OW41763   2.595   4.333   5.461  0.3630  0.2613  0.1105
13448SOL    HW141764   2.659   4.325   5.389  1.3571 -1.8731  1.1428
13448SOL    HW241765   2.635   4.396   5.521  2.0569 -1.6626  1.1600
13449SOL     OW41766   0.229   0.620   3.283 -0.1281  0.2374  0.0868
13449SOL    HW141767   0.162   0.621   3.352  1.1793 -2.1085  1.4962
13449SOL    HW241768   0.184   0.581   3.208 -0.7785  0.0843  0.5437
13450SOL     OW41769   4.043   1.463   3.410  0.4899  0.0684 -0.2582
13450SOL    HW141770   4.054   1.438   3.318  3.1078  0.8090 -0.2258
13450SOL    HW241771   4.092   1.396   3.459  1.6717  1.3111  0.3282
13451SOL     OW41772   7.167   1.567   2.479  0.1981 -0.5003 -0.5673
13451SOL    HW141773   7.259   1.583   2.497  0.6575 -2.0803 -1.2572
13451SOL    HW241774   7.122   1.648   2.503  1.7768  0.3425 -0.3547
13452SOL     OW41775   7.092   5.947   6.768  0.0199  0.0999 -0.0662
13452SOL    HW141776   7.051   5.970   6.684 -0.5091 -2.8169 -0.6913
13452SOL    HW241777   7.184   5.969   6.756 -0.0067 -0.4823 -1.5094
13453SOL     OW41778   3.269   6.880   0.054 -0.2702  0.0889 -0.2979
13453SOL    HW141779   3.248   6.789   0.030 -1.0572 -0.0146  0.7033
13453SOL    HW241780   3.224   6.893   0.137  0.3996  1.1938 -0.0966
13454SOL     OW41781   5.138   7.432   3.474  0.1171  0.0529  0.1181
13454SOL    HW141782   5.200   7.503   3.492 -2.1209  1.7512  1.7698
13454SOL    HW241783   5.097   7.457   3.391  0.6560 -0.3538 -0.2785
13455SOL     OW41784   1.223   4.676   1.321  0.1248 -0.2506 -0.1534
13455SOL    HW141785   1.217   4.580   1.319  0.5332 -0.3152  1.1596
13455SOL    HW241786   1.158   4.705   1.257 -0.4419 -1.3893 -0.1191
13456SOL     OW41787   2.903   2.195   1.750  0.0948 -0.3434  0.3139
13456SOL    HW141788   2.875   2.256   1.682  2.8693  1.4295  0.5794
13456SOL    HW241789   2.884   2.240   1.833 -0.2915 -1.0570  0.6253
13457SOL     OW41790   6.700   0.310   4.963 -0.3076 -0.0177  0.0133
13457SOL    HW141791   6.753   0.261   5.026  1.4250 -0.2483 -1.5409
13457SOL    HW241792   6.708   0.401   4.990  0.2808 -0.1356  0.2504
13458SOL     OW41793   2.090   6.870   1.084 -0.5415 -0.3350 -0.0241
13458SOL    HW141794   2.097   6.850   1.177 -1.2370 -0.2805  0.0405
13458SOL    HW241795   2.118   6.790   1.040  1.2171  0.0952  0.2054
13459SOL     OW41796   0.707   8.053   0.833  0.5452 -0.2565 -0.8557
13459SOL    HW141797   0.786   8.105   0.847 -0.9068  1.5890  1.2193
13459SOL    HW241798   0.690   8.013   0.918 -1.8074  1.0567 -0.6290
13460SOL     OW41799   3.694   0.373   2.108 -0.5032 -0.4411 -0.1987
13460SOL    HW141800   3.671   0.458   2.071 -1.2792  0.2053  1.6330
13460SOL    HW241801   3.677   0.310   2.037 -1.5357  0.7450 -1.0487
13461SOL     OW41802   1.994   6.796   5.389  0.0019 -0.4775 -0.1650
13461SOL    HW141803   2.007   6.882   5.429 -0.7179 -0.9924  1.2341
13461SOL    HW241804   1.901   6.793   5.367  0.0446 -0.8712 -0.3058
13462SOL     OW41805   0.402   0.869   7.672  0.5100 -0.0994  0.2221
13462SOL    HW141806   0.484   0.918   7.680  1.7424 -2.2159  1.8455
13462SOL    HW241807   0.421   0.784   7.712 -2.1787 -1.0799 -0.3477
13463SOL     OW41808   1.780   7.557   5.446  0.3099  0.0140  0.1963
13463SOL    HW141809   1.787   7.634   5.503 -1.4351 -0.6596  1.3949
13463SOL    HW241810   1.844   7.495   5.480 -0.2833 -0.1409  1.0496
13464SOL     OW41811   7.163   1.903   5.216 -0.0842  0.2656 -0.1432
13464SOL    HW141812   7.120   1.824   5.183  1.3564  0.4184 -2.6420
13464SOL    HW241813   7.095   1.949   5.264 -1.6659 -1.2741 -0.7929
13465SOL     OW41814   5.710   2.017   1.934 -0.5993 -0.0887  0.0578
13465SOL    HW141815   5.684   2.091   1.879  1.6295 -1.0462 -2.5496
13465SOL    HW241816   5.707   1.942   1.875  1.5571 -1.2540  1.3059
13466SOL     OW41817   2.549   2.391   0.042  0.0888  0.2328  0.1356
13466SOL    HW141818   2.560   2.302   0.073 -2.8229 -0.0635  0.6006
13466SOL    HW241819   2.578   2.389  -0.049 -0.2656 -1.3003  0.0309
13467SOL     OW41820   3.959   2.716   4.494  0.1886  0.4173  0.0382
13467SOL    HW141821   3.885   2.773   4.517 -1.5149 -1.9727  0.9516
13467SOL    HW241822   3.921   2.652   4.433  1.4118 -1.0362  0.7357
13468SOL     OW41823   6.077   6.983   5.042 -0.2737 -0.1474 -0.1719
13468SOL    HW141824   5.984   6.960   5.051 -1.2030  2.8159 -1.1160
13468SOL    HW241825   6.086   7.011   4.951  1.7930 -1.0938 -0.3152
13469SOL     OW41826   7.456   3.772   2.032  0.6633 -0.0008  0.0043
13469SOL    HW141827   7.427   3.692   2.074  0.9280  0.5143  1.2116
13469SOL    HW241828   7.472   3.833   2.104 -1.1253  1.6975 -0.9181
13470SOL     OW41829   7.810   5.552   3.254  0.1331  0.3985  0.1786
13470SOL    HW141830   7.752   5.624   3.276 -1.5605  0.1704 -2.9545
13470SOL    HW241831   7.887   5.594   3.215 -0.1818  0.5880 -0.2502
13471SOL     OW41832   4.554   3.306   3.485  0.4211 -0.2343 -0.0157
13471SOL    HW141833   4.642   3.321   3.452  0.1461  0.5926 -0.3901
13471SOL    HW241834   4.498   3.304   3.407  0.4358 -3.6366 -0.0887
13472SOL     OW41835   5.711   2.441   4.993  0.0607 -0.7163  0.2081
13472SOL    HW141836   5.667   2.498   5.056  2.2628  1.6064 -0.1889
13472SOL    HW241837   5.793   2.417   5.036  0.4104 -1.2884 -0.7603
13473SOL     OW41838   1.836   7.168   6.868  0.1928  0.3641 -0.1049
13473SOL    HW141839   1.906   7.152   6.804 -0.5578  0.8466 -1.0830
13473SOL    HW241840   1.837   7.263   6.880 -0.6340  0.4343 -0.5431
13474SOL     OW41841   4.561   1.147   2.404  0.2649  0.0396  0.4183
13474SOL    HW141842   4.538   1.222   2.459  0.7840 -0.2237  1.0119
13474SOL    HW241843   4.597   1.185   2.324  0.6515  0.4227  0.7735
13475SOL     OW41844   4.121   4.077   5.297  0.2655 -0.2466 -0.0124
13475SOL    HW141845   4.027   4.094   5.289  0.3233 -0.6387 -2.0810
13475SOL    HW241846   4.133   4.050   5.388 -1.2887  1.6425  0.8374
13476SOL     OW41847   0.958   4.441   3.343 -0.4558  0.5464  0.0174
13476SOL    HW141848   1.046   4.478   3.345  0.3015 -0.7324 -3.3381
13476SOL    HW241849   0.959   4.372   3.409  0.7179  1.1588  0.6676
13477SOL     OW41850   6.464   6.569   0.570 -0.0794  0.2501  0.3037
13477SOL    HW141851   6.476   6.533   0.481  1.0778 -3.2706  1.6974
13477SOL    HW241852   6.552   6.594   0.598  0.4384 -2.8091  1.8774
13478SOL     OW41853   5.659   5.934   7.635  0.3181  0.1421 -0.0702
13478SOL    HW141854   5.676   6.026   7.656 -0.5546  0.1235  0.7793
13478SOL    HW241855   5.575   5.935   7.589  0.3881 -0.2202 -0.2040
13479SOL     OW41856   5.162   2.578   5.968  0.4003  0.3825  0.2229
13479SOL    HW141857   5.156   2.496   6.017  2.9301 -0.8404 -1.2700
13479SOL    HW241858   5.157   2.646   6.035  1.3277 -1.1087  1.9216
13480SOL     OW41859   3.445   0.815   4.733 -0.8481  0.7951  0.1149
13480SOL    HW141860   3.375   0.779   4.787 -1.1980  1.9033  0.4190
13480SOL    HW241861   3.401   0.878   4.676 -0.2450  0.7842 -0.3671
13481SOL     OW41862   4.323   1.718   0.466  0.1198 -0.1646 -0.1181
13481SOL    HW141863   4.314   1.680   0.378 -1.4069 -0.6797  0.2396
13481SOL    HW241864   4.378   1.657   0.513 -0.7779 -0.9861 -0.1097
13482SOL     OW41865   5.050   6.580   3.809 -0.4937  0.4992  0.0190
13482SOL    HW141866   5.068   6.566   3.716 -1.4850  1.3210 -0.3184
13482SOL    HW241867   5.119   6.640   3.838 -1.2964  1.8170 -0.6907
13483SOL     OW41868   4.433   1.844   2.956  0.0981  0.5722  0.4046
13483SOL    HW141869   4.337   1.852   2.959  0.1142  0.5420  1.4626
13483SOL    HW241870   4.464   1.934   2.944 -0.0505  0.6817  0.8133
13484SOL     OW41871   1.156   1.821   2.672  0.2999  0.3614  0.4864
13484SOL    HW141872   1.168   1.811   2.578  0.8040 -0.7813  0.6623
13484SOL    HW241873   1.244   1.821   2.708  0.0629 -2.3343  1.2345
13485SOL     OW41874   5.959   1.541   7.447  0.5290 -1.0372  0.2975
13485SOL    HW141875   5.917   1.502   7.523 -1.4186 -0.9641 -0.6829
13485SOL    HW241876   5.987   1.467   7.393 -4.1000 -1.4298 -2.0795
13486SOL     OW41877   7.281   5.909   3.203  0.3066 -0.0257  0.5499
13486SOL    HW141878   7.288   5.814   3.205 -0.4228 -0.1355 -1.2016
13486SOL    HW241879   7.370   5.939   3.187  0.7178 -0.3332  2.0688
13487SOL     OW41880   0.805   3.843   4.446 -0.0674 -0.1140  0.0303
13487SOL    HW141881   0.791   3.751   4.425  0.2500 -0.2361  0.3367
13487SOL    HW241882   0.745   3.890   4.389 -0.8950 -0.5528  0.5236
13488SOL     OW41883   0.937   7.460   6.579  0.0280  0.6269 -0.0431
13488SOL    HW141884   0.960   7.375   6.543 -2.0225 -0.9419  2.0232
13488SOL    HW241885   0.955   7.522   6.509  0.0842 -1.6847 -2.2057
13489SOL     OW41886   7.212   7.278   0.916  0.1118 -0.3470  0.2289
13489SOL    HW141887   7.176   7.341   0.978 -0.3860 -0.8958  0.5025
13489SOL    HW241888   7.292   7.319   0.884 -0.3647  0.5647  0.1742
13490SOL     OW41889   1.666   2.665   6.500 -0.0521  0.4521 -0.2634
13490SOL    HW141890   1.755   2.630   6.514 -0.1385  0.6487  0.8416
13490SOL    HW241891   1.672   2.710   6.416  1.1657  1.2865  0.2302
13491SOL     OW41892   5.951   7.374   3.572  0.0277  0.3346 -0.3284
13491SOL    HW141893   6.028   7.317   3.571 -0.2395 -0.0550  0.2445
13491SOL    HW241894   5.911   7.358   3.658  0.1925  1.7161  0.0174
13492SOL     OW41895   5.162   3.977   1.181  0.4781 -0.3174  0.4994
13492SOL    HW141896   5.139   3.919   1.253 -1.0424 -1.6206 -0.9363
13492SOL    HW241897   5.119   4.060   1.202 -1.5960 -1.2578  0.2300
13493SOL     OW41898   7.685   0.415   5.525  0.9219  0.0123  0.8525
13493SOL    HW141899   7.766   0.363   5.522  0.6315 -0.5524  2.0216
13493SOL    HW241900   7.654   0.404   5.615 -0.9650 -0.5893  0.1758
13494SOL     OW41901   5.127   3.516   6.044 -0.5929  0.1894 -0.5540
13494SOL    HW141902   5.148   3.610   6.039  0.4384  0.0214  0.2611
13494SOL    HW241903   5.033   3.512   6.028 -0.6911  1.3851 -0.4082
13495SOL     OW41904   6.281   7.068   6.152  0.4037 -0.2899  0.1360
13495SOL    HW141905   6.219   7.095   6.084  0.4301 -0.9361 -0.1541
13495SOL    HW241906   6.229   7.066   6.232  0.3427  0.3578  0.1156
13496SOL     OW41907   0.025   5.291   2.376 -0.6000 -0.0196 -0.3990
13496SOL    HW141908   0.081   5.261   2.305  0.3766  1.2483 -0.1972
13496SOL    HW241909  -0.026   5.362   2.338 -0.8817 -0.0737 -0.1254
13497SOL     OW41910   7.362   6.024   4.025  0.7508  0.0411 -0.2122
13497SOL    HW141911   7.320   5.958   3.969  1.2725  0.0072 -0.5750
13497SOL    HW241912   7.442   6.047   3.978  2.5010 -1.7706  1.6559
13498SOL     OW41913   0.859   1.703   2.075 -0.1928  0.1323 -0.1744
13498SOL    HW141914   0.919   1.629   2.080 -0.0762  0.2531  0.3137
13498SOL    HW241915   0.907   1.775   2.115 -0.9463  0.0271  0.9682
13499SOL     OW41916   0.963   0.471   2.056  0.4485  0.2755 -0.4073
13499SOL    HW141917   0.885   0.417   2.057  0.2653  0.5384 -0.4544
13499SOL    HW241918   1.025   0.423   2.002  0.7307 -0.4970  0.5766
13500SOL     OW41919   0.670   1.274   3.763  0.2782  0.2710 -0.4713
13500SOL    HW141920   0.643   1.356   3.804  0.7489 -0.1087  0.6424
13500SOL    HW241921   0.764   1.270   3.776  0.0422 -1.3567  1.3189
13501SOL     OW41922   6.339   1.830   0.836  0.0994 -0.4442  0.3596
13501SOL    HW141923   6.380   1.874   0.911  0.9633  1.1051 -0.9727
13501SOL    HW241924   6.387   1.862   0.760 -0.8117 -1.9261 -0.8875
13502SOL     OW41925   7.664   3.417   1.047  0.2593  0.6057  0.1575
13502SOL    HW141926   7.630   3.333   1.079  1.0341 -0.4748 -1.7210
13502SOL    HW241927   7.592   3.479   1.062 -0.2990 -0.3438  1.6459
13503SOL     OW41928   6.525   2.510   1.801 -0.7504 -0.1259  0.2720
13503SOL    HW141929   6.542   2.423   1.836 -1.4715 -0.6350 -0.6003
13503SOL    HW241930   6.612   2.547   1.783 -0.2824  0.5204  3.3451
13504SOL     OW41931   2.676   7.106   1.712  0.0245  0.1408  0.8013
13504SOL    HW141932   2.622   7.027   1.716 -0.2068  0.3145  1.2643
13504SOL    HW241933   2.660   7.142   1.625  1.8089 -1.4708 -0.2602
13505SOL     OW41934   2.234   3.652   0.874 -0.0380 -1.0161 -1.0944
13505SOL    HW141935   2.329   3.646   0.887 -0.1742 -2.1247 -0.4538
13505SOL    HW241936   2.198   3.654   0.962 -0.6174 -0.4288 -1.3351
13506SOL     OW41937   6.104   7.115   7.678 -0.3346 -0.6690  0.5860
13506SOL    HW141938   6.047   7.181   7.716  0.1590 -1.3133  2.5581
13506SOL    HW241939   6.045   7.051   7.638 -0.8917 -0.2559  0.7504
13507SOL     OW41940   5.203   4.709   6.362  0.1854  0.1454 -0.3224
13507SOL    HW141941   5.263   4.639   6.333  0.9067 -0.4220  2.2774
13507SOL    HW241942   5.254   4.789   6.354  0.5831 -0.0805 -0.1090
13508SOL     OW41943   6.039   1.683   2.435 -0.1786 -0.0169  0.1975
13508SOL    HW141944   6.092   1.609   2.464  1.7144  0.7259 -1.1839
13508SOL    HW241945   6.058   1.752   2.498  0.3281  0.1738 -0.1593
13509SOL     OW41946   7.388   7.954   2.798  0.5428  0.2638  0.0698
13509SOL    HW141947   7.365   7.916   2.714  0.6924 -1.7132  0.8696
13509SOL    HW241948   7.379   7.882   2.860  1.3247  1.4304  1.6101
13510SOL     OW41949   4.104   6.093   8.044 -0.1196  0.1856  0.2213
13510SOL    HW141950   4.045   6.155   8.002 -0.6826  0.0225  0.7653
13510SOL    HW241951   4.179   6.147   8.071 -0.0679  0.4124 -0.3538
13511SOL     OW41952   5.514   4.391   3.859 -0.2263 -0.0736  0.6088
13511SOL    HW141953   5.559   4.475   3.851 -0.9268  0.2733  0.1692
13511SOL    HW241954   5.492   4.367   3.769  0.5559 -1.0633  0.6728
13512SOL     OW41955   3.207   4.883   1.186 -0.1666  0.2602  0.0249
13512SOL    HW141956   3.278   4.946   1.176  0.0078 -0.1841 -1.7522
13512SOL    HW241957   3.248   4.798   1.177 -0.4883 -0.1467  1.9122
13513SOL     OW41958   7.078   2.096   1.083 -0.3461 -0.3528 -0.5792
13513SOL    HW141959   7.018   2.144   1.140  1.2452 -1.4071  2.1620
13513SOL    HW241960   7.054   2.004   1.095  0.0519 -0.6117 -1.6483
13514SOL     OW41961   6.120   6.049   2.792 -0.2069 -0.1663  0.3350
13514SOL    HW141962   6.170   6.119   2.835 -0.4248  1.0506 -1.3128
13514SOL    HW241963   6.118   5.978   2.856  2.8449  0.0805  0.8217
13515SOL     OW41964   6.636   6.702   1.356 -0.2043 -0.1535 -0.9336
13515SOL    HW141965   6.613   6.698   1.264 -0.6672 -0.6577 -0.8041
13515SOL    HW241966   6.552   6.712   1.401 -0.0155 -0.2786 -0.5480
13516SOL     OW41967   7.981   5.671   7.188 -0.1628  0.1162  0.0056
13516SOL    HW141968   7.981   5.673   7.092 -0.9241 -0.7724 -0.0300
13516SOL    HW241969   8.016   5.585   7.210  0.0144  0.3213  0.5255
13517SOL     OW41970   4.589   6.861   4.078  0.4401  0.0658 -0.2248
13517SOL    HW141971   4.673   6.851   4.122 -0.3410 -0.4783  1.2031
13517SOL    HW241972   4.565   6.953   4.092  0.7608  0.2162 -0.6152
13518SOL     OW41973   2.382   2.682   2.979  0.5280  0.0436 -0.9725
13518SOL    HW141974   2.397   2.588   2.984  0.0904 -0.0733 -1.6840
13518SOL    HW241975   2.287   2.691   2.972  0.5907  0.5179 -1.2849
13519SOL     OW41976   3.868   1.700   3.065 -0.0274  0.0305 -0.3719
13519SOL    HW141977   3.941   1.638   3.070 -1.8634 -2.2694 -0.0745
13519SOL    HW241978   3.812   1.665   2.996 -1.5113  0.9397  0.3208
13520SOL     OW41979   6.216   6.168   3.261 -0.2638  0.1825  0.1453
13520SOL    HW141980   6.141   6.185   3.319 -0.2924  0.5667 -0.0015
13520SOL    HW241981   6.208   6.235   3.193  0.8464  0.9493  0.7433
13521SOL     OW41982   7.199   1.364   7.533  0.2941  0.2365 -0.0714
13521SOL    HW141983   7.152   1.448   7.532  0.3870  0.4021  2.7374
13521SOL    HW241984   7.146   1.307   7.477 -0.6337  1.6937 -0.7680
13522SOL     OW41985   5.908   5.530   4.798  0.0867  0.0795  0.4429
13522SOL    HW141986   5.960   5.479   4.736 -0.5510  0.3757 -0.3675
13522SOL    HW241987   5.946   5.617   4.795 -0.2104  0.2036  0.1249
13523SOL     OW41988   4.862   0.095   1.331  0.2332  0.1185  0.2129
13523SOL    HW141989   4.843   0.150   1.255  2.4413  0.5927 -0.0542
13523SOL    HW241990   4.899   0.015   1.294 -0.3740 -0.3992  0.7178
13524SOL     OW41991   2.727   3.454   0.239 -0.5369  0.4241  0.2606
13524SOL    HW141992   2.760   3.495   0.159  0.0129  0.2484  0.3936
13524SOL    HW241993   2.672   3.382   0.207 -0.2845  0.3262  0.0406
13525SOL     OW41994   5.137   0.173   2.555  0.1049 -0.5264  0.2040
13525SOL    HW141995   5.184   0.257   2.551 -0.7915 -0.0190 -0.1013
13525SOL    HW241996   5.161   0.136   2.639  2.0175 -0.8789 -0.4506
13526SOL     OW41997   2.466   3.345   0.848  0.5388  0.2733  0.1426
13526SOL    HW141998   2.528   3.277   0.821  0.4759  0.0146  0.6312
13526SOL    HW241999   2.449   3.396   0.769 -0.7993 -1.3576 -0.6547
13527SOL     OW42000   3.163   6.807   5.102  0.8079  0.1427  0.2579
13527SOL    HW142001   3.245   6.857   5.112 -0.1050  2.0249 -1.0863
13527SOL    HW242002   3.169   6.768   5.016  0.3722  0.1402  0.2260
13528SOL     OW42003   1.654   7.586   5.732 -0.5724 -0.0773  0.5312
13528SOL    HW142004   1.624   7.670   5.767 -1.3080 -0.5366  1.0327
13528SOL    HW242005   1.742   7.574   5.769 -0.3850  0.5590  0.2962
13529SOL     OW42006   6.339   6.802   2.105  0.5463  0.0753 -0.0150
13529SOL    HW142007   6.267   6.857   2.135  0.2977  1.1599 -2.4150
13529SOL    HW242008   6.299   6.717   2.089 -0.0241  0.4233 -0.4775
13530SOL     OW42009   5.197   7.417   7.663 -0.0173  0.5493  0.5448
13530SOL    HW142010   5.223   7.476   7.593 -0.4943  1.6558  1.2804
13530SOL    HW242011   5.186   7.473   7.739 -0.2167 -0.5312  1.3378
13531SOL     OW42012   6.455   2.254   7.696  0.6253 -0.3100  0.4013
13531SOL    HW142013   6.496   2.168   7.690  0.9914 -0.1408  0.4453
13531SOL    HW242014   6.459   2.288   7.607  2.4754  0.5643  0.7742
13532SOL     OW42015   3.338   3.060   0.472  0.2506  0.1858  0.2732
13532SOL    HW142016   3.317   3.022   0.387 -0.4429 -1.9434  1.3284
13532SOL    HW242017   3.375   3.146   0.451 -2.0607  0.7472 -2.0545
13533SOL     OW42018   7.671   6.339   0.363 -0.0721 -0.5023  0.1762
13533SOL    HW142019   7.603   6.280   0.395 -0.1027 -1.8132 -2.1026
13533SOL    HW242020   7.724   6.285   0.304  1.4863  1.1065  0.0155
13534SOL     OW42021   0.330   0.628   4.019  0.1282  0.3179  0.2436
13534SOL    HW142022   0.265   0.600   4.084 -0.4582  1.3996  0.1399
13534SOL    HW242023   0.312   0.720   4.005  1.1380  0.4251 -0.4525
13535SOL     OW42024   3.918   7.623   4.530  0.4578 -0.4164 -0.2072
13535SOL    HW142025   3.974   7.652   4.458  0.2551 -0.2264 -0.2866
13535SOL    HW242026   3.859   7.559   4.490  0.4223 -0.3984 -0.1827
13536SOL     OW42027   2.155   4.740   4.508  0.2097  0.3043 -0.2396
13536SOL    HW142028   2.183   4.708   4.594 -1.9817 -0.4382  0.2484
13536SOL    HW242029   2.103   4.818   4.528 -0.7708 -0.1861 -0.8219
13537SOL     OW42030   3.489   4.848   0.925 -0.2777  0.5996  0.2218
13537SOL    HW142031   3.490   4.889   0.838 -0.6914  2.1128  0.9093
13537SOL    HW242032   3.432   4.903   0.977 -0.4039 -0.5614  1.3532
13538SOL     OW42033   6.923   0.413   2.178  0.0130 -0.5094  0.3423
13538SOL    HW142034   6.830   0.391   2.179  0.2831 -1.7298  1.0585
13538SOL    HW242035   6.959   0.363   2.104 -0.1164  1.0939 -0.8736
13539SOL     OW42036   6.713   0.717   3.192  0.3583  0.1137 -0.1683
13539SOL    HW142037   6.789   0.776   3.200  0.8098 -0.5272  0.3980
13539SOL    HW242038   6.731   0.666   3.113  1.2964 -1.0922  0.7812
13540SOL     OW42039   5.268   5.635   6.839  0.5296 -0.1119 -0.8184
13540SOL    HW142040   5.310   5.710   6.880 -1.7014  0.6188  0.2974
13540SOL    HW242041   5.196   5.673   6.789  0.7526 -1.3483 -2.1321
13541SOL     OW42042   3.416   6.553   3.041 -0.0635  0.4086  0.1208
13541SOL    HW142043   3.413   6.596   2.956  0.0530 -1.1862 -0.7271
13541SOL    HW242044   3.326   6.528   3.059  0.0157  0.0841  0.0907
13542SOL     OW42045   4.403   2.756   3.506 -0.0746 -0.3328  0.4424
13542SOL    HW142046   4.342   2.813   3.552  0.0093  0.4383 -0.3835
13542SOL    HW242047   4.347   2.706   3.446  0.0453  0.0352  0.0223
13543SOL     OW42048   0.066   5.301   6.499 -0.1782 -0.1077  0.1027
13543SOL    HW142049   0.113   5.241   6.556 -1.1562 -0.2185  0.8190
13543SOL    HW242050   0.065   5.384   6.546 -0.8128 -0.1471  0.1742
13544SOL     OW42051   2.717   5.396   3.771  0.2665  0.0255  0.7132
13544SOL    HW142052   2.639   5.432   3.728  0.2403 -2.2073 -1.3401
13544SOL    HW242053   2.682   5.339   3.839  0.1911  0.4507  1.0390
13545SOL     OW42054   0.257   5.144   5.927 -0.3154  0.2636 -0.4333
13545SOL    HW142055   0.183   5.099   5.967 -0.1077  1.1491  1.0494
13545SOL    HW242056   0.260   5.111   5.838 -0.7099 -1.9705  0.3000
13546SOL     OW42057   7.933   4.176   6.130  0.0372  0.2493 -0.0900
13546SOL    HW142058   7.925   4.107   6.197 -0.2670 -2.0382 -2.3176
13546SOL    HW242059   7.847   4.179   6.089  1.4540 -2.1604 -3.6831
13547SOL     OW42060   4.069   2.532   5.055  0.2068 -0.1002  0.5973
13547SOL    HW142061   4.104   2.475   4.986  0.8337  1.7383 -0.6891
13547SOL    HW242062   3.982   2.556   5.025  0.8064  1.3936 -0.0341
13548SOL     OW42063   1.717   3.822   7.336  0.4724 -0.3383 -0.1162
13548SOL    HW142064   1.758   3.786   7.414 -0.3478 -2.6753 -0.6962
13548SOL    HW242065   1.656   3.755   7.306 -1.5874  1.7669 -1.0150
13549SOL     OW42066   7.485   0.170   4.892  0.3498  0.5988  0.4346
13549SOL    HW142067   7.577   0.152   4.909  0.3148  0.8731  0.9335
13549SOL    HW242068   7.458   0.228   4.963  0.1310  1.6034 -0.4461
13550SOL     OW42069   2.899   5.289   1.002 -0.1220 -0.2224  0.0544
13550SOL    HW142070   2.976   5.234   1.014  0.2121  0.1436 -0.3631
13550SOL    HW242071   2.830   5.228   0.975 -0.3278 -0.7380  1.6801
13551SOL     OW42072   6.049   5.427   7.138  0.0293 -0.1824  0.3634
13551SOL    HW142073   5.985   5.462   7.076  0.8479  0.1211 -0.3414
13551SOL    HW242074   6.129   5.417   7.086  0.7714  0.1783  1.4091
13552SOL     OW42075   7.228   3.601   5.626  0.2577 -0.0484 -0.4322
13552SOL    HW142076   7.231   3.678   5.682 -2.0963  0.8569 -1.3966
13552SOL    HW242077   7.301   3.547   5.655  2.4329  2.7971 -0.1454
13553SOL     OW42078   1.463   5.219   0.408  0.1527  0.6209 -0.5039
13553SOL    HW142079   1.530   5.196   0.472  0.5408 -0.8813 -1.4181
13553SOL    HW242080   1.386   5.242   0.461  0.8479  0.6404  0.5155
13554SOL     OW42081   6.495   6.062   6.287  0.0739  0.0275  0.2622
13554SOL    HW142082   6.534   5.994   6.232  0.2954 -0.7155  1.3005
13554SOL    HW242083   6.547   6.140   6.270 -0.1347 -0.0724 -0.8945
13555SOL     OW42084   1.185   5.233   7.864 -0.0369  0.3452  0.0383
13555SOL    HW142085   1.113   5.202   7.809  1.3096 -0.1762 -1.5158
13555SOL    HW242086   1.142   5.278   7.937 -2.1434 -3.7785  1.6736
13556SOL     OW42087   8.054   3.743   0.521  0.2213 -0.2591  0.0762
13556SOL    HW142088   7.976   3.690   0.503  0.1061 -0.0302 -0.1044
13556SOL    HW242089   8.049   3.815   0.458  0.3745 -0.0313  0.3225
13557SOL     OW42090   1.180   4.072   7.115  0.2876  0.2954  0.5445
13557SOL    HW142091   1.098   4.081   7.067  1.1462  3.7140 -0.5480
13557SOL    HW242092   1.239   4.027   7.055 -0.0515  0.1850  0.2925
13558SOL     OW42093   7.442   5.157   3.253  0.6018  0.4488  0.3514
13558SOL    HW142094   7.492   5.080   3.278  0.9194  0.1029 -1.2384
13558SOL    HW242095   7.368   5.159   3.313  1.8508  0.2718  1.9534
13559SOL     OW42096   1.128   3.845   6.524 -0.2574 -0.0347 -0.1485
13559SOL    HW142097   1.122   3.849   6.429  0.0881 -0.6302 -0.1975
13559SOL    HW242098   1.038   3.858   6.554 -0.3856  0.0312 -0.5573
13560SOL     OW42099   4.026   3.840   4.616  0.6720 -0.4363 -0.2093
13560SOL    HW142100   4.056   3.769   4.672  0.5723 -0.9980 -0.8626
13560SOL    HW242101   4.029   3.805   4.527 -0.3628  0.0275 -0.4481
13561SOL     OW42102   3.655   4.809   0.439  0.4724  1.0197  0.0555
13561SOL    HW142103   3.601   4.734   0.410  0.2920  1.8330 -1.8670
13561SOL    HW242104   3.702   4.776   0.515 -0.0455 -0.8750 -0.3798
13562SOL     OW42105   2.496   3.057   0.940  0.6852 -0.0779 -0.2069
13562SOL    HW142106   2.527   2.966   0.934  0.0030 -0.1929 -3.3260
13562SOL    HW242107   2.403   3.050   0.962  0.9667 -0.0210  1.1033
13563SOL     OW42108   0.064   1.377   4.138  0.4508  0.0299  0.2128
13563SOL    HW142109   0.134   1.419   4.088 -0.6237  0.5305 -0.9176
13563SOL    HW242110  -0.001   1.445   4.152  0.0907 -0.4707  1.1067
13564SOL     OW42111   5.320   7.279   2.804  0.4394 -0.2279 -0.2024
13564SOL    HW142112   5.331   7.195   2.849  0.8309  0.9143  1.9962
13564SOL    HW242113   5.403   7.292   2.758  0.6108 -0.7821 -0.0594
13565SOL     OW42114   2.116   1.161   4.174  0.0517  0.0529  0.5721
13565SOL    HW142115   2.084   1.184   4.261 -0.7259 -1.6296  0.7778
13565SOL    HW242116   2.160   1.077   4.186  1.0337  0.3968 -0.4434
13566SOL     OW42117   0.191   2.939   2.018 -0.2419 -0.0916 -0.1104
13566SOL    HW142118   0.193   3.028   1.983  0.9198 -0.1655 -0.2803
13566SOL    HW242119   0.198   2.950   2.112 -0.9365  0.0276 -0.0735
13567SOL     OW42120   6.506   6.379   0.357  0.4477 -0.2227  0.3945
13567SOL    HW142121   6.497   6.305   0.416  0.9241 -1.3748 -0.9141
13567SOL    HW242122   6.601   6.389   0.346  0.3744  0.2533  0.1640
13568SOL     OW42123   0.172   0.455   4.986 -0.0305  0.4387 -0.0605
13568SOL    HW142124   0.243   0.502   4.942  2.4543 -0.9714  2.1694
13568SOL    HW242125   0.207   0.367   5.000 -2.4464 -0.4704  0.7047
13569SOL     OW42126   3.627   6.413   5.186  0.0198  0.2803 -0.2230
13569SOL    HW142127   3.657   6.482   5.127  0.1288 -2.0464 -3.1024
13569SOL    HW242128   3.531   6.421   5.185 -0.1099 -1.0132 -2.4974
13570SOL     OW42129   3.910   5.214   1.164 -0.3617 -0.1443 -0.0161
13570SOL    HW142130   3.955   5.290   1.199  0.0157 -0.4979  0.2661
13570SOL    HW242131   3.895   5.157   1.239 -1.2670 -0.0413 -0.1030
13571SOL     OW42132   4.163   3.292   0.154  0.7168 -0.1132 -0.4728
13571SOL    HW142133   4.243   3.247   0.126  1.6030  0.3843  1.1372
13571SOL    HW242134   4.194   3.371   0.198 -0.6329 -0.3267  0.9214
13572SOL     OW42135   0.811   3.467   6.544  0.4858 -0.2034 -0.4786
13572SOL    HW142136   0.777   3.535   6.602  1.7937  0.4458 -0.4215
13572SOL    HW242137   0.820   3.511   6.459 -1.3809 -1.1325 -1.2096
13573SOL     OW42138   6.035   8.046   4.647  0.2902 -0.4185  0.2861
13573SOL    HW142139   6.045   8.141   4.652 -0.1853 -0.3973  0.9781
13573SOL    HW242140   5.975   8.032   4.573  1.2159 -0.2570 -0.5209
13574SOL     OW42141   2.125   5.329   3.054  0.3632  0.5916 -0.6026
13574SOL    HW142142   2.173   5.326   3.137 -0.9124  1.5409  0.2091
13574SOL    HW242143   2.168   5.398   3.003 -1.3857  3.0722  1.0189
13575SOL     OW42144   6.514   4.989   6.602 -0.0190 -0.1458 -0.0867
13575SOL    HW142145   6.598   5.027   6.579 -0.0744 -0.0999 -0.2189
13575SOL    HW242146   6.520   4.970   6.696 -0.0874  0.4270  0.0320
13576SOL     OW42147   1.819   5.777   6.442  0.1876  0.6714 -0.0104
13576SOL    HW142148   1.860   5.786   6.528  1.8985 -2.4285 -0.3734
13576SOL    HW242149   1.892   5.772   6.381 -0.9306  0.5032 -1.3823
13577SOL     OW42150   6.832   1.825   4.128  0.5183  0.6191  0.0491
13577SOL    HW142151   6.866   1.736   4.130 -2.1042 -0.5066 -0.8267
13577SOL    HW242152   6.882   1.869   4.059 -0.2396 -1.1661 -1.7267
13578SOL     OW42153   5.563   7.916   4.761 -0.1727  0.7300  0.1663
13578SOL    HW142154   5.581   7.994   4.708  0.6793  0.9073  0.6976
13578SOL    HW242155   5.488   7.939   4.815 -1.1187  0.5198 -0.9974
13579SOL     OW42156   4.207   2.428   7.376 -0.0152 -0.5932 -0.0668
13579SOL    HW142157   4.226   2.515   7.342  1.9258 -0.3243  1.5020
13579SOL    HW242158   4.292   2.383   7.375 -0.4782 -1.6076  1.4367
13580SOL     OW42159   7.085   2.133   0.077  0.3705 -0.3146 -0.5960
13580SOL    HW142160   7.011   2.172   0.031  1.1026 -0.3977 -1.8990
13580SOL    HW242161   7.050   2.052   0.115 -1.2458  1.6077  2.3981
13581SOL     OW42162   6.078   3.088   0.591 -0.1466  0.0770  0.1437
13581SOL    HW142163   6.000   3.033   0.584  0.8316 -1.3129 -0.2361
13581SOL    HW242164   6.043   3.177   0.601 -1.7570 -0.3156 -1.4733
13582SOL     OW42165   0.917   0.724   0.408  0.1452 -0.9474  0.0319
13582SOL    HW142166   0.909   0.753   0.499 -0.3688 -0.8952 -0.0242
13582SOL    HW242167   0.830   0.692   0.385 -0.3912  1.0919 -1.1336
13583SOL     OW42168   0.564   2.454   1.654 -0.0853  0.3818 -0.3784
13583SOL    HW142169   0.507   2.487   1.724 -0.1263  1.8532 -1.0745
13583SOL    HW242170   0.505   2.430   1.583  0.0841  1.3818 -0.8857
13584SOL     OW42171   0.778   5.511   5.691 -0.0073  0.4127  0.1341
13584SOL    HW142172   0.789   5.464   5.773  0.1093 -0.2585 -0.2615
13584SOL    HW242173   0.791   5.445   5.623  0.4853  1.0748 -0.4332
13585SOL     OW42174   7.411   1.192   2.480  0.7113  0.4225  0.1055
13585SOL    HW142175   7.387   1.272   2.433 -1.4200 -0.4724 -0.4313
13585SOL    HW242176   7.459   1.140   2.415  1.0838  0.7486  0.1084
13586SOL     OW42177   7.198   0.141   0.389  0.0284  0.7144 -0.0124
13586SOL    HW142178   7.174   0.161   0.299 -1.0917  0.3506  0.1830
13586SOL    HW242179   7.140   0.068   0.413 -0.6026  1.6488  1.4125
13587SOL     OW42180   0.245   0.707   7.915  0.1155 -0.9271 -0.1434
13587SOL    HW142181   0.317   0.688   7.854 -0.9299 -0.1887 -1.6772
13587SOL    HW242182   0.270   0.664   7.996  1.8485 -1.4638 -0.9176
13588SOL     OW42183   2.640   3.931   6.365  0.5387  0.1193 -0.0350
13588SOL    HW142184   2.566   3.878   6.395  2.0746 -2.0098  0.2502
13588SOL    HW242185   2.638   4.010   6.419 -0.8389 -0.4367  0.7595
13589SOL     OW42186   7.257   3.647   3.728 -0.3555 -0.0568 -0.2596
13589SOL    HW142187   7.293   3.644   3.639  0.5704 -0.2633  0.1157
13589SOL    HW242188   7.182   3.706   3.721  0.0393  0.3699 -1.0620
13590SOL     OW42189   6.519   3.003   5.633 -0.4399  0.1547 -0.4759
13590SOL    HW142190   6.434   3.040   5.608 -0.4939 -0.9984 -2.1734
13590SOL    HW242191   6.515   2.913   5.602  2.1469  0.6117 -2.4971
13591SOL     OW42192   4.687   1.312   8.036 -0.1138 -0.7419  0.2725
13591SOL    HW142193   4.773   1.354   8.046 -1.0138  1.2662 -0.0932
13591SOL    HW242194   4.634   1.349   8.106 -0.9391 -1.3000 -0.0505
13592SOL     OW42195   4.418   1.419   6.320  0.2282  0.2139  0.3911
13592SOL    HW142196   4.402   1.326   6.303  0.2467  0.1249  0.8354
13592SOL    HW242197   4.506   1.421   6.357 -0.3319  0.2358  1.7764
13593SOL     OW42198   3.190   6.456   6.991  0.1072  0.1425 -0.1145
13593SOL    HW142199   3.229   6.399   6.925  1.8405 -0.1159  1.0548
13593SOL    HW242200   3.190   6.402   7.071 -0.9208  0.8122  0.3576
13594SOL     OW42201   4.064   2.033   6.713 -0.0732  0.6032  0.0790
13594SOL    HW142202   4.149   2.068   6.689 -0.3636  0.8168 -0.6798
13594SOL    HW242203   4.070   2.017   6.807  1.7499 -2.0539 -0.3805
13595SOL     OW42204   0.264   4.577   2.059 -0.1872  0.1996  0.3241
13595SOL    HW142205   0.224   4.648   2.008  1.4051 -0.0284 -1.3369
13595SOL    HW242206   0.355   4.604   2.069  0.8659 -2.2487 -1.6903
13596SOL     OW42207   6.570   4.540   8.002  0.1884  0.4272  0.3719
13596SOL    HW142208   6.495   4.547   7.943  0.5776 -0.9443 -0.3291
13596SOL    HW242209   6.580   4.446   8.017  2.6792  0.4287 -0.7870
13597SOL     OW42210   5.562   3.656   6.119  0.4111  0.0626  0.3654
13597SOL    HW142211   5.655   3.645   6.096 -0.0306  0.5827 -1.8612
13597SOL    HW242212   5.550   3.600   6.196  2.4149 -0.5084  0.3322
13598SOL     OW42213   4.969   2.892   4.943 -0.1232  0.0656 -0.0380
13598SOL    HW142214   4.959   2.878   5.037  0.3742 -2.6693 -0.2946
13598SOL    HW242215   5.034   2.961   4.935  0.8412 -0.5833  1.6577
13599SOL     OW42216   2.608   6.806   2.189 -0.3949  0.2318  0.6649
13599SOL    HW142217   2.692   6.763   2.172 -0.5312  0.3379 -0.3500
13599SOL    HW242218   2.591   6.858   2.110 -1.9062 -0.5931  0.4026
13600SOL     OW42219   4.366   7.504   7.641 -0.0364  0.6292 -0.1982
13600SOL    HW142220   4.368   7.510   7.737  2.8055 -1.6085  0.0111
13600SOL    HW242221   4.334   7.416   7.623  0.4877  0.6409 -1.2820
13601SOL     OW42222   5.046   3.298   5.249  0.0795 -0.4022 -0.4052
13601SOL    HW142223   4.957   3.307   5.215 -0.2919 -1.4578  0.2288
13601SOL    HW242224   5.094   3.371   5.210 -1.0083  0.0644 -0.9232
13602SOL     OW42225   5.430   1.684   5.610 -0.6622 -0.3969  0.1297
13602SOL    HW142226   5.485   1.755   5.577 -0.4851 -0.6374 -0.0970
13602SOL    HW242227   5.345   1.700   5.569 -0.6522 -0.2525  0.1640
13603SOL     OW42228   7.594   2.969   4.297  0.7347  0.1270  0.1127
13603SOL    HW142229   7.655   3.024   4.248 -0.0443  1.8150  0.9453
13603SOL    HW242230   7.545   3.030   4.351 -1.4418 -1.1984 -0.2299
13604SOL     OW42231   2.290   6.589   4.396  0.1228 -0.1593 -0.1590
13604SOL    HW142232   2.265   6.539   4.318  0.8529  1.6846 -1.6628
13604SOL    HW242233   2.383   6.609   4.383  0.3071  0.0272  1.2998
13605SOL     OW42234   7.886   0.178   4.163  0.2070 -0.2203 -0.3131
13605SOL    HW142235   7.921   0.184   4.252  0.9607  0.0480 -0.6180
13605SOL    HW242236   7.821   0.249   4.158  0.5590  0.1193 -0.1431
13606SOL     OW42237   7.696   1.745   0.593  0.1976  0.1028  0.4345
13606SOL    HW142238   7.774   1.691   0.602  0.8749  0.7668 -1.0588
13606SOL    HW242239   7.623   1.684   0.597  0.8296 -0.6344  0.9384
13607SOL     OW42240   4.280   1.034   5.593  0.1204  0.2273  0.5944
13607SOL    HW142241   4.325   0.971   5.538  1.2489  1.1647  0.4179
13607SOL    HW242242   4.203   1.059   5.543 -0.5089 -1.2021  0.7924
13608SOL     OW42243   2.042   4.401   6.936  0.3178  0.2347 -0.0343
13608SOL    HW142244   2.123   4.353   6.952 -0.5359 -1.7540 -1.3239
13608SOL    HW242245   1.979   4.365   6.999 -0.0470  0.4409 -0.2765
13609SOL     OW42246   5.055   6.870   4.159  0.3706 -0.2204  0.5466
13609SOL    HW142247   5.079   6.931   4.089 -2.5455  0.0094 -0.3825
13609SOL    HW242248   5.133   6.865   4.214  1.5990  2.3411 -0.7753
13610SOL     OW42249   0.288   6.622   1.031  0.4072  0.6061  0.4942
13610SOL    HW142250   0.338   6.658   0.958  0.5705  3.3785  1.8521
13610SOL    HW242251   0.198   6.653   1.016  0.1304 -0.0798  0.6926
13611SOL     OW42252   6.313   6.944   3.860  0.0157  0.5372 -0.3886
13611SOL    HW142253   6.267   6.940   3.944 -1.3547  2.1498 -0.9996
13611SOL    HW242254   6.402   6.973   3.883  0.0985 -0.4292  0.6054
13612SOL     OW42255   6.266   5.810   7.959  0.1569  0.3046 -0.0509
13612SOL    HW142256   6.350   5.777   7.927  0.1910  0.3247  0.0174
13612SOL    HW242257   6.202   5.783   7.892  0.1320 -0.1805  0.1684
13613SOL     OW42258   4.114   2.655   7.546 -0.5442  0.6116  0.7944
13613SOL    HW142259   4.170   2.689   7.616 -1.0544  0.6957  1.1679
13613SOL    HW242260   4.145   2.565   7.532 -0.0645  0.7824  0.7243
13614SOL     OW42261   1.200   3.246   1.394 -0.3396 -0.4241  0.2917
13614SOL    HW142262   1.249   3.291   1.326 -0.6377 -0.4306  0.0670
13614SOL    HW242263   1.261   3.182   1.430  0.1265  0.2547  0.7136
13615SOL     OW42264   0.988   5.967   3.355 -0.3069 -0.3162  0.3888
13615SOL    HW142265   0.955   5.904   3.420 -3.0314 -0.9723 -1.4661
13615SOL    HW242266   1.039   5.914   3.294  0.6557 -0.0084  0.8969
13616SOL     OW42267   6.834   4.476   2.140  0.0163  0.0718  0.2717
13616SOL    HW142268   6.786   4.410   2.090 -2.7334  1.8677  0.3201
13616SOL    HW242269   6.824   4.557   2.089 -0.3765  1.3261  2.2090
13617SOL     OW42270   7.042   5.331   7.082  0.0596  0.3355 -0.2121
13617SOL    HW142271   7.103   5.395   7.045  1.3422  0.8424  2.4971
13617SOL    HW242272   7.073   5.247   7.050  0.9804  0.7557 -0.4621
13618SOL     OW42273   4.811   0.021   4.434  0.2141  0.1174 -0.3653
13618SOL    HW142274   4.884  -0.038   4.415 -0.1736 -0.2170 -0.8604
13618SOL    HW242275   4.733  -0.029   4.408 -0.0487  1.2573 -1.9201
13619SOL     OW42276   3.537   6.388   3.478  0.1965  0.4823  0.4453
13619SOL    HW142277   3.622   6.365   3.441  1.5521  2.8920  1.8156
13619SOL    HW242278   3.505   6.459   3.422 -0.3847  0.3820  0.6415
13620SOL     OW42279   2.382   0.501   4.850 -0.3578 -0.3443  0.4648
13620SOL    HW142280   2.455   0.530   4.795 -1.3179 -1.1410 -1.3320
13620SOL    HW242281   2.319   0.572   4.845 -1.2402 -1.1771 -1.0865
13621SOL     OW42282   4.849   6.239   3.148  0.2088 -0.2700 -0.0507
13621SOL    HW142283   4.927   6.212   3.197  0.0008 -0.3189  0.2616
13621SOL    HW242284   4.882   6.296   3.079  0.5163 -0.2452  0.1144
13622SOL     OW42285   2.092   7.669   1.393  0.1020 -0.2084  0.3314
13622SOL    HW142286   2.062   7.701   1.478 -0.0334 -0.5399  0.4084
13622SOL    HW242287   2.106   7.748   1.341 -0.3085 -0.0267  0.4953
13623SOL     OW42288   3.528   3.663   0.913  0.6220  0.0506  0.4852
13623SOL    HW142289   3.570   3.591   0.865  0.8537 -0.4953  1.4861
13623SOL    HW242290   3.520   3.631   1.002  0.1711  1.0499  0.8186
13624SOL     OW42291   0.960   1.822   0.519 -0.1469  0.1334 -0.4007
13624SOL    HW142292   0.937   1.732   0.497  0.1436  0.6164 -3.0415
13624SOL    HW242293   0.913   1.876   0.455  0.2640  1.8124  0.6383
13625SOL     OW42294   4.355   4.570   1.585 -0.3938  0.2897 -0.3262
13625SOL    HW142295   4.286   4.631   1.557 -0.6564 -0.3427 -1.1024
13625SOL    HW242296   4.307   4.495   1.619 -0.0790  0.1808 -0.1273
13626SOL     OW42297   1.300   4.455   0.356  0.2295  0.0886 -0.2111
13626SOL    HW142298   1.353   4.522   0.399 -0.6161  0.2285  0.6557
13626SOL    HW242299   1.333   4.372   0.393  0.0275  0.1586  0.1342
13627SOL     OW42300   6.263   0.304   3.899  0.4011  0.2411  0.2758
13627SOL    HW142301   6.188   0.255   3.865 -0.4210  0.0196  2.2614
13627SOL    HW242302   6.246   0.395   3.874  1.3291 -0.2242 -2.3773
13628SOL     OW42303   2.904   0.082   5.483 -0.0943 -0.5288 -0.1902
13628SOL    HW142304   2.899   0.036   5.567 -0.9499 -1.0663 -0.5316
13628SOL    HW242305   2.994   0.066   5.453  0.3890  0.0879  0.8441
13629SOL     OW42306   6.055   4.265   1.017  0.1585 -0.3069  0.4626
13629SOL    HW142307   6.104   4.341   1.048  0.0119 -0.9208  2.3080
13629SOL    HW242308   6.101   4.190   1.054 -1.0452 -0.9968  0.6166
13630SOL     OW42309   0.600   1.448   2.009  0.2900 -0.2167 -0.7707
13630SOL    HW142310   0.533   1.388   2.042  0.6425 -0.1160  0.1791
13630SOL    HW242311   0.626   1.499   2.086  1.1790  0.0152 -1.2115
13631SOL     OW42312   0.724   6.459   7.636  0.1165 -0.0832  0.0750
13631SOL    HW142313   0.702   6.386   7.694  2.1638 -0.3542  0.6024
13631SOL    HW242314   0.780   6.420   7.569  0.5698  0.8395 -0.1003
13632SOL     OW42315   5.570   2.862   7.172 -0.4532  0.1279 -0.2889
13632SOL    HW142316   5.646   2.888   7.120 -0.0640  0.2368  0.3273
13632SOL    HW242317   5.565   2.927   7.242 -0.0183 -0.9024  0.7349
13633SOL     OW42318   7.420   1.544   5.321 -0.0123 -0.2732 -0.4347
13633SOL    HW142319   7.335   1.564   5.361  0.3391 -0.9999  0.7285
13633SOL    HW242320   7.429   1.449   5.330  0.8586 -0.2181 -0.6689
13634SOL     OW42321   4.900   5.345   2.173  0.1293 -0.5714  0.7682
13634SOL    HW142322   4.847   5.406   2.120  2.1079  1.0041  0.4820
13634SOL    HW242323   4.840   5.315   2.241 -1.1515  1.1125  0.4602
13635SOL     OW42324   3.565   7.185   1.230  0.0727  0.0274 -0.4411
13635SOL    HW142325   3.475   7.216   1.237 -0.4037 -0.6904 -2.5841
13635SOL    HW242326   3.577   7.126   1.304 -0.9499  0.7456  0.3116
13636SOL     OW42327   6.104   5.256   2.912  0.2599  0.5162 -0.4594
13636SOL    HW142328   6.186   5.240   2.958 -0.8989 -0.0368  1.4917
13636SOL    HW242329   6.064   5.328   2.959 -1.4430 -0.7449  0.0910
13637SOL     OW42330   7.776   2.888   3.475 -0.3636  0.3455  0.1522
13637SOL    HW142331   7.781   2.891   3.379 -1.2257  0.6611  0.1108
13637SOL    HW242332   7.866   2.900   3.504 -0.1831  0.9046 -0.6072
13638SOL     OW42333   6.865   0.883   5.955  0.0938 -0.0209 -0.0916
13638SOL    HW142334   6.834   0.849   6.039 -0.5648 -1.3851 -0.8596
13638SOL    HW242335   6.945   0.833   5.937  0.0629  0.0478 -0.4240
13639SOL     OW42336   6.699   0.882   5.708 -0.0547 -0.2015  0.3151
13639SOL    HW142337   6.756   0.880   5.785  0.0460  0.6192  0.2668
13639SOL    HW242338   6.758   0.861   5.635  0.2091  0.7388  0.2538
13640SOL     OW42339   6.088   7.096   3.798 -0.5707 -0.4279 -0.0819
13640SOL    HW142340   6.088   7.163   3.729  1.0856 -1.7298 -1.4123
13640SOL    HW242341   6.177   7.061   3.798 -0.4931 -0.4914  2.7624
13641SOL     OW42342   0.113   0.329   0.240 -0.2706 -0.3943 -0.1483
13641SOL    HW142343   0.179   0.262   0.255  0.8767  0.7436  0.0825
13641SOL    HW242344   0.032   0.292   0.277  0.3698 -1.5409  0.1555
13642SOL     OW42345   5.396   1.818   3.732 -0.7585 -0.5452 -0.6045
13642SOL    HW142346   5.464   1.775   3.681 -0.7116 -1.5203  0.2349
13642SOL    HW242347   5.329   1.750   3.743 -1.3868  0.0768 -0.5403
13643SOL     OW42348   2.335   2.826   4.469 -0.1682 -0.1320 -0.8671
13643SOL    HW142349   2.370   2.911   4.445  0.4374 -0.4611 -1.1484
13643SOL    HW242350   2.391   2.762   4.425 -1.2274 -0.6634 -1.4958
13644SOL     OW42351   6.708   2.187   4.444 -0.6204 -0.3231  0.3016
13644SOL    HW142352   6.645   2.222   4.381 -1.5690  0.6835  1.7468
13644SOL    HW242353   6.655   2.167   4.522  0.8773  0.9991  1.7338
13645SOL     OW42354   2.548   5.979   1.215 -0.3932 -0.2557 -0.3212
13645SOL    HW142355   2.623   6.009   1.266 -1.2688 -0.8526  1.3807
13645SOL    HW242356   2.582   5.905   1.164  0.1459 -0.6087  0.5339
13646SOL     OW42357   7.903   0.779   2.286  0.2869  0.3906 -0.9656
13646SOL    HW142358   7.996   0.773   2.267  0.3384  0.6491 -0.8050
13646SOL    HW242359   7.863   0.710   2.234  0.7151 -0.6439  0.0511
13647SOL     OW42360   1.000   3.276   7.831 -0.0479  0.3808  0.1372
13647SOL    HW142361   1.009   3.207   7.897 -1.9381  1.2253  1.3599
13647SOL    HW242362   1.082   3.325   7.837  0.1206 -0.0087  1.3328
13648SOL     OW42363   2.570   1.391   7.863 -0.5731  0.1046 -0.0771
13648SOL    HW142364   2.490   1.416   7.908 -0.5858  0.5164 -0.3319
13648SOL    HW242365   2.640   1.410   7.926 -0.7013 -0.6649  0.3155
13649SOL     OW42366   8.054   4.917   3.159  0.5392  0.4829  0.1949
13649SOL    HW142367   8.048   5.009   3.136 -0.3837  0.0552 -1.4241
13649SOL    HW242368   8.001   4.872   3.093  2.1145 -1.3332  0.0627
13650SOL     OW42369   0.509   5.222   1.711 -0.4637 -0.3996  0.3087
13650SOL    HW142370   0.502   5.288   1.780 -1.2668 -0.4429  0.2807
13650SOL    HW242371   0.568   5.260   1.647 -2.3044  1.1141 -0.5876
13651SOL     OW42372   3.554   7.879   1.133 -0.2864  0.2681 -0.2647
13651SOL    HW142373   3.476   7.924   1.102 -0.2534  0.7530  0.3292
13651SOL    HW242374   3.522   7.814   1.195 -0.1901  0.8663  0.4327
13652SOL     OW42375   5.358   4.272   2.177 -0.0087  0.1189 -0.2423
13652SOL    HW142376   5.264   4.254   2.176 -0.3594  1.8023 -0.5733
13652SOL    HW242377   5.394   4.209   2.240 -1.6617  0.7727  1.4628
13653SOL     OW42378   4.023   1.329   5.822 -0.1389 -0.5074  0.3083
13653SOL    HW142379   3.947   1.278   5.793 -2.8623  3.8870 -1.1863
13653SOL    HW242380   4.004   1.349   5.914 -0.2705 -0.2395  0.2223
13654SOL     OW42381   0.707   4.336   7.532 -0.2889 -0.3912 -0.0361
13654SOL    HW142382   0.746   4.404   7.587 -1.8471  0.2056  0.3647
13654SOL    HW242383   0.769   4.327   7.459 -1.1067  3.1522 -1.3635
13655SOL     OW42384   0.642   7.793   2.137  0.1779 -0.1701  0.0269
13655SOL    HW142385   0.712   7.781   2.201 -0.0820 -0.0473  0.3330
13655SOL    HW242386   0.561   7.774   2.185 -0.3418  3.0749  0.7042
13656SOL     OW42387   2.389   1.219   2.943 -0.8687 -0.0857  0.2825
13656SOL    HW142388   2.432   1.159   2.881 -0.6412 -0.8810  1.1861
13656SOL    HW242389   2.461   1.264   2.987 -1.0410  1.5526 -1.0076
13657SOL     OW42390   0.572   6.424   3.349  0.1224  0.0458  0.1060
13657SOL    HW142391   0.531   6.476   3.418  0.3746  0.1392  0.1880
13657SOL    HW242392   0.501   6.403   3.289 -0.0029  0.3841  0.1366
13658SOL     OW42393   6.394   7.348   4.476  0.3841  0.8478 -0.1321
13658SOL    HW142394   6.449   7.285   4.429 -2.9880 -2.2766 -0.3560
13658SOL    HW242395   6.313   7.350   4.426 -2.2325 -0.2246  3.6486
13659SOL     OW42396   0.383   0.357   2.936 -0.3330 -0.1359  0.0031
13659SOL    HW142397   0.388   0.393   3.024  0.2290  1.5872 -0.6909
13659SOL    HW242398   0.290   0.362   2.913 -0.2181  1.3725 -0.2394
13660SOL     OW42399   2.094   5.282   4.250  0.2991 -0.0094 -0.3115
13660SOL    HW142400   2.046   5.275   4.167 -0.2660  0.3577 -0.0230
13660SOL    HW242401   2.185   5.289   4.224  0.1975 -0.6233 -0.8788
13661SOL     OW42402   0.484   5.410   3.243 -0.0393 -0.4481 -0.4601
13661SOL    HW142403   0.420   5.382   3.308  0.9595 -0.6440  0.4646
13661SOL    HW242404   0.506   5.500   3.268 -1.3385  0.3313 -1.9125
13662SOL     OW42405   3.208   4.321   3.849  0.0695  0.0550  0.3608
13662SOL    HW142406   3.144   4.288   3.912  0.8581 -0.1356  1.0747
13662SOL    HW242407   3.226   4.410   3.878 -1.8542  1.1153 -1.4054
13663SOL     OW42408   1.676   3.095   0.194 -0.2170 -0.2244 -0.3425
13663SOL    HW142409   1.610   3.164   0.193  0.5535  0.5355 -1.6040
13663SOL    HW242410   1.650   3.037   0.266 -2.1656  0.1146 -0.7309
13664SOL     OW42411   5.036   6.692   5.346  0.1987  0.4326  0.7907
13664SOL    HW142412   5.049   6.597   5.350  2.1878  0.6564  0.3205
13664SOL    HW242413   4.941   6.702   5.335  0.0092 -1.5034  0.2418
13665SOL     OW42414   7.942   0.802   4.662  0.0812 -0.6661 -0.3777
13665SOL    HW142415   7.898   0.785   4.746  1.3019  1.2502  0.7552
13665SOL    HW242416   7.871   0.825   4.602 -0.6665  0.2993  0.8202
13666SOL     OW42417   3.877   7.999   2.887 -0.5550 -0.3277  0.1556
13666SOL    HW142418   3.818   8.022   2.958 -0.5699 -0.1162  0.0747
13666SOL    HW242419   3.953   7.960   2.930 -1.3604 -1.9600  0.1988
13667SOL     OW42420   1.770   0.614   5.917  0.1399 -0.3830 -0.0029
13667SOL    HW142421   1.725   0.697   5.935 -0.0591 -0.6437  0.7017
13667SOL    HW242422   1.820   0.595   5.996  1.3025 -0.2369 -0.6729
13668SOL     OW42423   5.650   5.745   5.826 -0.2774  0.6019  0.2874
13668SOL    HW142424   5.720   5.735   5.761 -0.9489 -0.5208 -0.2901
13668SOL    HW242425   5.571   5.758   5.774 -0.7686  0.0368  0.8866
13669SOL     OW42426   1.096   3.302   4.014  0.6691 -0.2025 -0.2922
13669SOL    HW142427   1.148   3.357   4.072 -0.8319  0.4889  0.4622
13669SOL    HW242428   1.086   3.354   3.934  1.0882 -0.3188 -0.4221
13670SOL     OW42429   6.826   2.996   2.836 -0.1290 -0.7957  0.5170
13670SOL    HW142430   6.770   2.958   2.903 -0.4825  0.6154  1.0599
13670SOL    HW242431   6.795   3.086   2.827  3.2132  0.7153  2.2274
13671SOL     OW42432   7.165   0.808   4.240 -0.4608  0.2094 -0.0300
13671SOL    HW142433   7.227   0.847   4.179 -0.6735  0.8518  0.1591
13671SOL    HW242434   7.079   0.826   4.203 -0.5544 -0.4128 -0.1325
13672SOL     OW42435   1.811   0.177   3.820  0.2083  0.0191  0.0999
13672SOL    HW142436   1.901   0.171   3.851  0.0900  1.8120  0.8941
13672SOL    HW242437   1.800   0.268   3.791 -1.0067 -0.4675 -1.1114
13673SOL     OW42438   4.333   2.615   2.932  0.2638 -0.6261 -0.2327
13673SOL    HW142439   4.364   2.683   2.872  1.7049 -1.2340 -0.2101
13673SOL    HW242440   4.257   2.577   2.889  0.1633  0.1986 -0.7960
13674SOL     OW42441   6.556   2.076   0.974 -0.1780  0.4867 -0.0974
13674SOL    HW142442   6.487   2.139   0.991  2.4001  3.1520  1.5837
13674SOL    HW242443   6.574   2.037   1.060  1.2000  0.8117 -0.2085
13675SOL     OW42444   0.635   6.585   1.085 -0.4156  0.0565 -0.0304
13675SOL    HW142445   0.685   6.665   1.098 -1.2139  0.4505  0.7302
13675SOL    HW242446   0.701   6.519   1.061  0.0510  1.3014 -2.3918
13676SOL     OW42447   5.808   7.493   2.260 -0.0222  0.0706 -0.6527
13676SOL    HW142448   5.747   7.428   2.226 -0.1833  0.7944 -1.7822
13676SOL    HW242449   5.891   7.446   2.268 -0.0131 -0.1482 -1.9388
13677SOL     OW42450   0.746   1.583   7.307 -0.1100 -0.0678  0.5738
13677SOL    HW142451   0.784   1.592   7.219 -0.8497  0.2134  0.2689
13677SOL    HW242452   0.694   1.502   7.302 -0.8096  0.3767  0.4927
13678SOL     OW42453   4.270   6.027   5.793  0.1096 -0.5114 -0.0809
13678SOL    HW142454   4.295   6.097   5.734  0.6721 -0.6913 -0.0597
13678SOL    HW242455   4.326   6.038   5.869 -0.4488 -0.4212  0.3252
13679SOL     OW42456   1.210   7.683   7.154 -0.1003 -0.3903  0.2389
13679SOL    HW142457   1.211   7.589   7.168  0.3790 -0.3637  0.4162
13679SOL    HW242458   1.224   7.693   7.059 -0.9577 -0.5104  0.0911
13680SOL     OW42459   7.204   6.375   0.671  0.3788  0.3924  0.5648
13680SOL    HW142460   7.227   6.325   0.750  1.3575  0.9039  0.6069
13680SOL    HW242461   7.175   6.459   0.704 -0.9346 -0.0012  0.4696
13681SOL     OW42462   7.220   5.421   4.726 -0.1330 -0.1578  0.3749
13681SOL    HW142463   7.258   5.499   4.766 -0.3795  0.7318 -1.0683
13681SOL    HW242464   7.273   5.407   4.647  0.1093 -1.6464  0.7765
13682SOL     OW42465   4.120   4.162   3.654  0.6012 -0.0398  0.4664
13682SOL    HW142466   4.124   4.247   3.611  2.0461 -0.7962 -1.0018
13682SOL    HW242467   4.159   4.177   3.741  1.0392  0.7592  0.1436
13683SOL     OW42468   4.822   7.304   2.896 -0.3736 -0.1217 -0.6926
13683SOL    HW142469   4.914   7.326   2.910 -0.4656  0.8726 -1.4976
13683SOL    HW242470   4.794   7.264   2.978  0.6162  0.1267 -0.2200
13684SOL     OW42471   2.031   4.515   0.743  0.0228  0.2312 -0.2486
13684SOL    HW142472   2.045   4.475   0.657  1.7105  1.5321 -0.6294
13684SOL    HW242473   1.969   4.456   0.787  0.5611 -1.4783 -1.6536
13685SOL     OW42474   3.902   7.360   5.774  0.0156 -0.2947  0.1574
13685SOL    HW142475   3.897   7.362   5.870  2.1537 -0.3698  0.3150
13685SOL    HW242476   3.812   7.345   5.746 -1.0417  1.9065  2.0581
13686SOL     OW42477   4.999   3.156   1.337  0.5180 -0.3196 -0.9086
13686SOL    HW142478   4.977   3.166   1.430  2.1646 -2.0663 -0.2558
13686SOL    HW242479   4.923   3.190   1.291 -0.5089  0.2658  1.0820
13687SOL     OW42480   3.078   4.780   0.197  0.4425  0.5109  0.4516
13687SOL    HW142481   2.986   4.808   0.194  0.9580  2.3378  0.3982
13687SOL    HW242482   3.084   4.727   0.277 -0.5731  0.7110  0.6746
13688SOL     OW42483   5.410   4.819   4.194  0.6284  0.1375 -0.2266
13688SOL    HW142484   5.360   4.763   4.253  0.2925 -0.1852 -0.8007
13688SOL    HW242485   5.444   4.759   4.128 -1.0732  0.7825 -1.7778
13689SOL     OW42486   6.730   6.690   0.427  0.6122 -0.6889  0.1145
13689SOL    HW142487   6.778   6.622   0.380  0.8847 -1.5399  1.5574
13689SOL    HW242488   6.792   6.720   0.494  0.4637  0.9314 -0.4271
13690SOL     OW42489   7.313   2.057   1.635  0.4748  0.7558 -0.8057
13690SOL    HW142490   7.390   2.046   1.578  1.5374  2.7148  0.1231
13690SOL    HW242491   7.240   2.066   1.574  0.9301 -1.2178 -1.7249
13691SOL     OW42492   2.054   4.717   4.080 -0.0264 -0.2992 -0.6789
13691SOL    HW142493   1.968   4.691   4.114  0.5194 -0.7847  0.3952
13691SOL    HW242494   2.116   4.685   4.146  0.9553  0.3476 -1.2669
13692SOL     OW42495   4.565   2.209   5.591  0.0017  0.1400  0.0212
13692SOL    HW142496   4.649   2.243   5.560  0.3699 -1.1674 -0.4673
13692SOL    HW242497   4.507   2.285   5.592  0.8853  0.8412 -0.7195
13693SOL     OW42498   7.509   5.919   5.836  0.4141  0.2647 -0.3299
13693SOL    HW142499   7.451   5.952   5.767 -0.2790  1.0943  0.6082
13693SOL    HW242500   7.456   5.924   5.916  1.8057  1.1096  0.5823
13694SOL     OW42501   4.342   1.324   2.147  0.2790 -0.3225  0.5646
13694SOL    HW142502   4.304   1.288   2.227 -0.7441  0.0095  0.2436
13694SOL    HW242503   4.287   1.400   2.126  1.3027  0.3536  0.2346
13695SOL     OW42504   1.615   0.903   3.722  0.0013 -0.0042  0.3373
13695SOL    HW142505   1.694   0.957   3.716 -1.2260  1.8872  0.2785
13695SOL    HW242506   1.597   0.876   3.632 -0.3592  1.0463  0.0741
13696SOL     OW42507   0.757   0.630   1.154 -0.8597 -0.1304  0.0361
13696SOL    HW142508   0.742   0.562   1.220  0.7018 -0.0261  0.5375
13696SOL    HW242509   0.845   0.612   1.120 -1.2891  0.3569 -1.3924
13697SOL     OW42510   5.213   0.527   0.681  0.2122  0.2021  0.5548
13697SOL    HW142511   5.201   0.622   0.689  0.2580  0.1928  0.7360
13697SOL    HW242512   5.131   0.496   0.642  0.7132  0.4857 -0.7877
13698SOL     OW42513   3.857   1.643   4.234 -1.0944  0.1417  0.6157
13698SOL    HW142514   3.850   1.700   4.157  2.4293 -0.0680  0.0022
13698SOL    HW242515   3.866   1.555   4.198  1.8601  0.1635  1.0746
13699SOL     OW42516   7.673   0.419   7.320 -0.5397  0.2433 -0.1998
13699SOL    HW142517   7.616   0.460   7.255  1.2955  0.2813 -1.8856
13699SOL    HW242518   7.624   0.424   7.402 -3.0641 -0.0050 -1.5908
13700SOL     OW42519   7.689   5.549   0.139 -0.1942  0.1521 -0.2686
13700SOL    HW142520   7.672   5.458   0.163 -0.1064  0.7291  2.2603
13700SOL    HW242521   7.783   5.560   0.155 -0.4570  1.0181  0.7226
13701SOL     OW42522   4.383   7.490   3.741 -0.2166 -0.2164 -0.1794
13701SOL    HW142523   4.414   7.414   3.790 -2.1497 -1.0122 -0.1318
13701SOL    HW242524   4.459   7.549   3.739  1.0092 -1.6772  0.6665
13702SOL     OW42525   1.109   1.656   6.537  0.5834  0.1650  0.2980
13702SOL    HW142526   1.100   1.588   6.604 -0.7456  0.2802  0.2737
13702SOL    HW242527   1.042   1.721   6.561 -0.6233 -0.2715 -1.6777
13703SOL     OW42528   1.659   7.159   3.983  0.3669  0.1482  0.5003
13703SOL    HW142529   1.686   7.250   3.995  1.6562 -0.2790  1.1034
13703SOL    HW242530   1.652   7.148   3.889 -0.1667  0.9701  0.4355
13704SOL     OW42531   0.348   3.965   3.466  0.4084 -0.1403 -0.4004
13704SOL    HW142532   0.372   3.984   3.557  2.3053 -0.2161 -0.8609
13704SOL    HW242533   0.313   3.876   3.469 -0.2318  0.1201  0.3470
13705SOL     OW42534   1.095   4.267   1.984  0.1884 -0.4150 -0.1573
13705SOL    HW142535   1.054   4.340   1.938 -0.4136 -1.3115 -1.0893
13705SOL    HW242536   1.149   4.308   2.051 -0.5117  0.8674 -0.3466
13706SOL     OW42537   5.084   3.158   4.941 -0.3850  1.0535 -0.1184
13706SOL    HW142538   5.166   3.123   4.975 -1.7743 -1.7219  0.6687
13706SOL    HW242539   5.050   3.214   5.011  1.5840  3.8223 -1.1655
13707SOL     OW42540   0.042   7.934   1.586  0.2584  0.0737  0.6351
13707SOL    HW142541   0.017   7.844   1.564 -1.4683  0.5384  0.5459
13707SOL    HW242542  -0.001   7.988   1.519  1.1656  0.9723  0.7625
13708SOL     OW42543   8.012   1.561   5.278  0.0056  0.1322  0.3408
13708SOL    HW142544   8.021   1.582   5.185  1.3397 -0.5329  0.3027
13708SOL    HW242545   7.918   1.567   5.294 -1.1781 -4.8389 -2.3300
13709SOL     OW42546   2.634   2.922   2.912  0.3135 -0.2498 -0.4148
13709SOL    HW142547   2.587   2.867   2.974 -0.3363  1.1175  0.3522
13709SOL    HW242548   2.572   2.936   2.840 -0.9494  2.3620  1.0470
13710SOL     OW42549   1.126   3.349   6.132  0.2578 -0.5104 -0.2229
13710SOL    HW142550   1.184   3.296   6.077  0.1597  0.0311 -0.8560
13710SOL    HW242551   1.038   3.313   6.115  0.2804 -0.6457 -0.0599
13711SOL     OW42552   0.711   2.894   3.393 -0.3854 -0.1619 -0.5494
13711SOL    HW142553   0.678   2.983   3.401 -0.8221 -0.3653  0.0042
13711SOL    HW242554   0.658   2.843   3.455 -1.2909 -1.1123 -2.0151
13712SOL     OW42555   7.371   1.693   4.952 -0.1563  0.2218  0.1761
13712SOL    HW142556   7.447   1.661   4.999 -0.4216  0.0328  0.4822
13712SOL    HW242557   7.300   1.692   5.017 -0.0587  1.9207  0.3377
13713SOL     OW42558   2.223   4.295   0.491  0.6177  0.2201  0.2216
13713SOL    HW142559   2.218   4.391   0.499 -0.3203  0.3372 -1.4244
13713SOL    HW242560   2.256   4.280   0.403 -1.0920 -0.9638 -0.2718
13714SOL     OW42561   1.423   0.278   7.977 -0.1902 -0.3000  0.3427
13714SOL    HW142562   1.417   0.270   8.072 -1.0074 -1.6862  0.2113
13714SOL    HW242563   1.410   0.188   7.945 -2.2862  0.4596 -1.1719
13715SOL     OW42564   5.965   2.287   1.296  0.2197  0.0438  0.1479
13715SOL    HW142565   5.906   2.362   1.286  1.1715  0.9227  0.9342
13715SOL    HW242566   6.029   2.315   1.361  0.3521 -1.6233  0.7754
13716SOL     OW42567   4.775   0.234   5.101  0.0647  0.3628  0.0774
13716SOL    HW142568   4.738   0.218   5.014 -0.2445 -0.6257  0.3765
13716SOL    HW242569   4.869   0.245   5.085  0.0809 -0.2808 -0.3448
13717SOL     OW42570   4.977   2.578   4.729 -0.3487  0.1643 -0.0646
13717SOL    HW142571   5.034   2.502   4.729 -1.1971 -0.4846  0.1042
13717SOL    HW242572   4.938   2.580   4.642 -1.4378 -0.4593  0.3927
13718SOL     OW42573   0.255   5.607   2.982  0.1670 -0.2503  0.3946
13718SOL    HW142574   0.289   5.694   3.003 -0.9008  0.0855  0.7757
13718SOL    HW242575   0.191   5.622   2.913 -0.5450 -0.6430  0.9594
13719SOL     OW42576   5.485   0.964   4.753 -0.0928  0.1078 -0.1058
13719SOL    HW142577   5.425   0.985   4.825  2.1428 -0.0495  1.9208
13719SOL    HW242578   5.435   0.903   4.697 -1.4764 -0.8671  2.0535
13720SOL     OW42579   6.820   2.528   1.729  0.4765 -0.0365  0.7735
13720SOL    HW142580   6.903   2.486   1.753  2.2738  1.6155 -1.9396
13720SOL    HW242581   6.777   2.464   1.672  1.6845  0.4231 -0.7388
13721SOL     OW42582   6.802   7.640   6.286 -0.7054 -0.0977  0.0148
13721SOL    HW142583   6.730   7.669   6.342 -0.0654 -0.6630  1.1407
13721SOL    HW242584   6.834   7.560   6.327  1.1487  0.6038  0.0313
13722SOL     OW42585   2.038   7.021   5.621  0.4619 -0.1637 -0.6976
13722SOL    HW142586   2.003   7.004   5.708  1.8828  1.1947  0.1751
13722SOL    HW242587   1.969   7.071   5.577  0.1591  0.0270 -0.0143
13723SOL     OW42588   5.514   4.929   3.903  0.0567 -0.2608 -0.7391
13723SOL    HW142589   5.528   4.879   3.984 -0.8966  1.9951  0.9503
13723SOL    HW242590   5.422   4.956   3.908  0.5970  1.8571 -1.3709
13724SOL     OW42591   4.394   5.982   0.283  0.8523  0.4935 -0.0577
13724SOL    HW142592   4.404   6.077   0.291  0.8821  0.3461  2.4227
13724SOL    HW242593   4.300   5.968   0.276  0.9306  0.7532 -2.3594
13725SOL     OW42594   1.621   4.853   5.660  0.1850 -0.0185 -0.3335
13725SOL    HW142595   1.666   4.776   5.625  0.6251 -0.9177  1.9910
13725SOL    HW242596   1.532   4.822   5.679  0.6020 -0.2659  1.3987
13726SOL     OW42597   6.662   3.737   0.601  0.0255 -0.0745  0.0138
13726SOL    HW142598   6.707   3.821   0.607 -1.2522  0.6639 -0.3530
13726SOL    HW242599   6.616   3.729   0.685  0.1357 -0.4186  0.0448
13727SOL     OW42600   3.673   1.163   3.359  0.1655 -0.1859  0.5319
13727SOL    HW142601   3.717   1.153   3.275  1.3021  0.4596  1.0302
13727SOL    HW242602   3.644   1.254   3.361  1.6499  0.2918  1.5227
13728SOL     OW42603   4.501   3.783   6.139 -0.4243  0.6164 -0.2343
13728SOL    HW142604   4.524   3.748   6.053 -0.5976 -1.7217  0.5762
13728SOL    HW242605   4.585   3.790   6.185 -0.5229 -0.3385  0.1222
13729SOL     OW42606   5.854   3.017   3.053  0.4231 -0.3296 -0.3701
13729SOL    HW142607   5.783   3.036   3.114  2.7063  0.5335  2.2390
13729SOL    HW242608   5.820   3.042   2.967 -2.4455 -0.1415  0.7361
13730SOL     OW42609   1.193   6.732   7.496 -0.5309  0.1321  0.0368
13730SOL    HW142610   1.269   6.727   7.554  0.2274  1.9053 -0.7193
13730SOL    HW242611   1.178   6.826   7.485 -0.3225 -0.1123 -3.0291
13731SOL     OW42612   4.722   4.233   1.606  0.0698 -0.2691  0.5316
13731SOL    HW142613   4.718   4.327   1.590  0.4751 -0.0380  1.7025
13731SOL    HW242614   4.697   4.193   1.522  1.2920  0.8522 -0.3994
13732SOL     OW42615   3.370   2.362   4.420  0.5766  0.0153 -0.7120
13732SOL    HW142616   3.388   2.280   4.466 -2.8849  0.3414  1.6429
13732SOL    HW242617   3.345   2.335   4.332  0.7709 -1.3322 -0.3861
13733SOL     OW42618   4.104   0.381   3.011 -0.3342  0.3796 -0.4788
13733SOL    HW142619   4.054   0.328   3.073  1.1719  1.2042  1.5455
13733SOL    HW242620   4.037   0.434   2.967 -1.3348  1.4659  2.1299
13734SOL     OW42621   5.563   2.033   5.997  0.4376  0.6608  0.0461
13734SOL    HW142622   5.585   2.038   5.904 -0.0681  0.1551 -0.1078
13734SOL    HW242623   5.610   2.106   6.037  2.4316 -0.3926 -0.2543
13735SOL     OW42624   4.853   3.705   3.101  0.2081  0.1759 -0.5679
13735SOL    HW142625   4.868   3.612   3.121 -1.4837 -0.1787 -0.8236
13735SOL    HW242626   4.904   3.721   3.022 -0.9535 -1.0665 -1.6120
13736SOL     OW42627   7.296   5.119   0.156  0.1121 -0.3636 -0.6362
13736SOL    HW142628   7.230   5.120   0.086 -0.7233 -0.8441  0.1204
13736SOL    HW242629   7.317   5.026   0.168 -0.5944 -0.3977  0.5011
13737SOL     OW42630   6.184   7.753   2.817  0.0609 -0.0373  0.1109
13737SOL    HW142631   6.138   7.671   2.800  0.3684 -0.1715 -0.0791
13737SOL    HW242632   6.149   7.783   2.900  0.9535 -1.0778  0.9020
13738SOL     OW42633   1.885   0.837   0.846 -0.0408  0.1405 -0.0383
13738SOL    HW142634   1.854   0.926   0.864 -0.8894 -0.0146 -0.6545
13738SOL    HW242635   1.902   0.836   0.752 -0.1052 -0.3646 -0.0481
13739SOL     OW42636   6.993   7.078   2.555 -0.0516 -0.2850 -0.0596
13739SOL    HW142637   6.940   7.012   2.599 -0.1513 -0.2914 -0.1903
13739SOL    HW242638   7.022   7.136   2.626 -1.5468  0.6445 -0.1737
13740SOL     OW42639   0.842   1.519   2.925  0.1961 -0.0711  0.2586
13740SOL    HW142640   0.851   1.477   2.840  1.1875 -0.5368  0.5774
13740SOL    HW242641   0.748   1.537   2.933 -0.2293 -1.9440 -0.0252
13741SOL     OW42642   0.189   5.383   2.570 -0.1377 -0.0128  0.2003
13741SOL    HW142643   0.127   5.330   2.520 -1.1255  2.2620 -1.1388
13741SOL    HW242644   0.141   5.409   2.648  0.7497 -1.9497  1.4715
13742SOL     OW42645   2.746   4.970   7.701 -0.0126 -0.6297  0.5889
13742SOL    HW142646   2.733   5.058   7.666  0.0634 -0.5313  0.8074
13742SOL    HW242647   2.718   4.912   7.631 -0.5604 -0.4312  0.6430
13743SOL     OW42648   1.866   1.804   7.169 -0.0521  0.9965 -0.0804
13743SOL    HW142649   1.770   1.810   7.164 -0.1760 -1.1152 -2.4585
13743SOL    HW242650   1.884   1.773   7.257 -1.7773 -0.6751 -0.2483
13744SOL     OW42651   6.950   5.781   6.273  0.8915 -0.3355  0.4432
13744SOL    HW142652   7.026   5.732   6.304  0.8487 -1.9031 -1.7273
13744SOL    HW242653   6.984   5.836   6.202 -0.0903 -1.7794 -1.2253
13745SOL     OW42654   1.705   4.807   3.660 -0.1617 -0.7326 -0.3183
13745SOL    HW142655   1.610   4.813   3.667 -0.0676  0.6334  0.0370
13745SOL    HW242656   1.736   4.897   3.671  1.4672 -1.6033  3.9776
13746SOL     OW42657   5.225   7.056   3.953  0.5441 -0.2483  0.2170
13746SOL    HW142658   5.269   7.112   3.890 -0.6702  1.7885  1.0612
13746SOL    HW242659   5.253   6.967   3.931  2.1384  0.6234 -1.5230
13747SOL     OW42660   2.711   6.768   4.466  0.5680  0.3110  0.7776
13747SOL    HW142661   2.633   6.814   4.499  0.8962  1.1593  0.3918
13747SOL    HW242662   2.676   6.700   4.408  0.0437 -0.4395  1.9316
13748SOL     OW42663   2.799   4.121   3.876  0.2713 -0.2440 -0.1981
13748SOL    HW142664   2.893   4.128   3.863  0.5123  0.8692  1.8486
13748SOL    HW242665   2.787   4.036   3.918  0.6203  0.4117  1.2934
13749SOL     OW42666   1.453   6.675   0.476  0.0842 -0.1355 -0.1006
13749SOL    HW142667   1.479   6.600   0.529 -1.6287  0.1197  1.1858
13749SOL    HW242668   1.455   6.749   0.537 -2.0859  0.1395 -0.2773
13750SOL     OW42669   4.415   0.129   7.711  0.3941 -0.6944  0.4333
13750SOL    HW142670   4.447   0.140   7.622  2.6561  0.5170  1.3209
13750SOL    HW242671   4.377   0.214   7.735  0.7681 -0.6775  0.9860
13751SOL     OW42672   2.590   4.819   1.683 -0.4808 -0.5871 -0.2312
13751SOL    HW142673   2.522   4.794   1.620 -0.7174 -0.7824  0.0958
13751SOL    HW242674   2.671   4.785   1.647 -0.8011 -1.8866  0.2218
13752SOL     OW42675   1.594   7.004   5.608 -0.1313 -0.5265  0.0465
13752SOL    HW142676   1.656   7.049   5.550 -0.3174 -0.4762 -0.1163
13752SOL    HW242677   1.508   7.025   5.571 -0.2846 -0.0310  0.6671
13753SOL     OW42678   0.550   1.342   2.327 -0.4429  0.0434 -0.2366
13753SOL    HW142679   0.608   1.282   2.374 -0.3060 -1.6167 -2.3676
13753SOL    HW242680   0.608   1.410   2.293 -0.0007 -0.6525 -0.8924
13754SOL     OW42681   1.597   2.530   7.727 -0.3488 -0.2435 -0.1683
13754SOL    HW142682   1.624   2.553   7.638  0.6577 -2.0128 -0.3706
13754SOL    HW242683   1.668   2.475   7.760 -0.1229  1.3183  2.1939
13755SOL     OW42684   0.001   4.867   0.125  0.5070  0.5054 -0.4517
13755SOL    HW142685  -0.071   4.804   0.124 -1.3258  2.4647 -0.2430
13755SOL    HW242686   0.049   4.848   0.205  0.7334 -1.3463 -0.9794
13756SOL     OW42687   0.038   2.519   4.072  1.0942 -1.0319 -0.3501
13756SOL    HW142688   0.054   2.614   4.071 -0.4790 -0.6559 -3.4609
13756SOL    HW242689  -0.009   2.504   4.153 -0.0837  1.1939 -0.5335
13757SOL     OW42690   4.390   3.981   6.285  0.0826 -0.1123  0.5741
13757SOL    HW142691   4.327   3.923   6.327 -1.3929 -0.1810 -1.6226
13757SOL    HW242692   4.429   3.929   6.215  0.4442  0.8238  0.0561
13758SOL     OW42693   4.811   3.065   6.610 -0.1085 -0.1652  0.7121
13758SOL    HW142694   4.898   3.104   6.617 -1.1021  2.6802 -1.0406
13758SOL    HW242695   4.827   2.977   6.575  2.0452  0.2433  0.5242
13759SOL     OW42696   1.910   7.183   3.401 -0.2960  0.2565 -0.0603
13759SOL    HW142697   1.821   7.147   3.409 -0.3936  0.8613  2.1163
13759SOL    HW242698   1.916   7.247   3.471  1.5874  0.8595 -0.7308
13760SOL     OW42699   1.483   5.999   0.868 -0.3220  0.3119 -0.3274
13760SOL    HW142700   1.489   5.934   0.798  1.1856 -0.5766  0.5902
13760SOL    HW242701   1.414   5.966   0.926  1.0638 -1.0219  0.6315
13761SOL     OW42702   6.293   5.635   5.942 -0.0025  0.3796  0.4145
13761SOL    HW142703   6.283   5.551   5.898 -0.9447  0.2159  0.9331
13761SOL    HW242704   6.314   5.613   6.033  0.2858  0.7101  0.4312
13762SOL     OW42705   2.382   6.523   4.645 -0.1718 -0.1380  0.1327
13762SOL    HW142706   2.419   6.442   4.610  0.3779  0.3367 -0.4250
13762SOL    HW242707   2.341   6.565   4.569 -1.1795 -0.2795  0.5851
13763SOL     OW42708   2.207   4.693   3.749  0.0893  0.1432  0.2566
13763SOL    HW142709   2.176   4.675   3.838 -1.1880  1.0727  0.0310
13763SOL    HW242710   2.134   4.667   3.692  0.4016  0.7292 -0.4268
13764SOL     OW42711   4.226   3.006   0.640 -0.0206 -0.1201  0.3652
13764SOL    HW142712   4.239   2.925   0.590  1.5293 -0.1394  0.7545
13764SOL    HW242713   4.257   3.075   0.581 -0.2585  0.0672  0.4616
13765SOL     OW42714   1.991   3.233   5.329 -0.6752  0.0809 -0.7595
13765SOL    HW142715   1.969   3.243   5.236 -1.0477 -2.1388 -0.9636
13765SOL    HW242716   1.906   3.226   5.373 -0.5288 -2.0269 -0.7084
13766SOL     OW42717   4.350   0.394   1.139  0.0496 -0.8163  0.1465
13766SOL    HW142718   4.343   0.301   1.164 -0.3464 -0.8685 -0.1488
13766SOL    HW242719   4.264   0.415   1.104  0.0150 -0.2251  0.5760
13767SOL     OW42720   5.164   5.209   3.187 -0.1119  0.2147  0.2764
13767SOL    HW142721   5.216   5.145   3.137 -1.2565 -1.4429  1.1405
13767SOL    HW242722   5.230   5.267   3.226  0.9752 -0.6044 -0.2687
13768SOL     OW42723   6.033   6.397   5.181 -0.0448 -0.0872  0.1165
13768SOL    HW142724   6.005   6.485   5.156 -0.6039 -0.5031 -0.7529
13768SOL    HW242725   6.095   6.371   5.113 -0.2682 -0.5613  0.0927
13769SOL     OW42726   1.838   2.725   2.041  0.5564  0.0124  0.4943
13769SOL    HW142727   1.887   2.735   1.959  0.6767  0.8784  0.6625
13769SOL    HW242728   1.876   2.791   2.100  1.4012 -1.5005  1.7184
13770SOL     OW42729   3.645   6.511   2.354 -0.4874  0.4419  0.2456
13770SOL    HW142730   3.606   6.432   2.318 -0.7430  0.8161 -0.3187
13770SOL    HW242731   3.712   6.537   2.290  0.0079  0.3577  0.7180
13771SOL     OW42732   2.164   4.777   5.035  0.0513 -0.0313 -0.2259
13771SOL    HW142733   2.108   4.699   5.035  1.8977 -1.4386  0.2226
13771SOL    HW242734   2.106   4.848   5.061 -1.7407 -1.2145 -0.7638
13772SOL     OW42735   6.832   4.112   7.596  0.3747  0.3945 -0.2224
13772SOL    HW142736   6.764   4.152   7.542  0.7158  3.2171  1.2209
13772SOL    HW242737   6.909   4.167   7.581  1.0105  0.0657  1.5982
13773SOL     OW42738   3.119   4.673   5.269  0.1709  0.4569 -0.2066
13773SOL    HW142739   3.104   4.588   5.311  1.5719 -0.3048 -1.1637
13773SOL    HW242740   3.149   4.730   5.339 -1.7161  0.4843  0.6464
13774SOL     OW42741   6.946   6.937   0.292 -0.2288 -0.5481  0.4279
13774SOL    HW142742   7.022   6.979   0.250 -0.1055 -0.2040  0.9720
13774SOL    HW242743   6.910   6.880   0.225 -0.2850  0.2933 -0.2847
13775SOL     OW42744   1.844   0.938   6.405  0.2205 -0.5516  0.6397
13775SOL    HW142745   1.769   0.971   6.355  1.4841 -0.1289 -1.0603
13775SOL    HW242746   1.819   0.949   6.497 -0.8274  1.8315  0.1253
13776SOL     OW42747   3.212   3.001   3.160  0.0486  0.5032  0.3932
13776SOL    HW142748   3.199   2.910   3.185  0.3491  0.1677 -0.6153
13776SOL    HW242749   3.274   2.997   3.087  1.0677  1.6132  1.1694
13777SOL     OW42750   7.904   3.046   2.024  1.1191  0.2635 -0.3524
13777SOL    HW142751   7.880   3.079   2.110  0.2788  0.9984 -0.8549
13777SOL    HW242752   7.885   2.952   2.027 -0.2038  0.5195 -0.1626
13778SOL     OW42753   7.899   6.633   5.050  0.6287 -0.2153 -0.2464
13778SOL    HW142754   7.836   6.702   5.074  2.0960  1.4916 -1.0316
13778SOL    HW242755   7.984   6.677   5.054  1.5631 -1.8417 -1.4069
13779SOL     OW42756   4.878   3.147   2.457 -0.2029  0.2218  0.2134
13779SOL    HW142757   4.910   3.221   2.405 -1.4469  0.5408 -0.1272
13779SOL    HW242758   4.893   3.070   2.402 -1.7534  0.5859 -0.7764
13780SOL     OW42759   4.577   0.352   6.551 -0.0876 -0.1337 -0.2202
13780SOL    HW142760   4.616   0.430   6.591 -1.6858 -0.2047  1.6540
13780SOL    HW242761   4.626   0.279   6.589  0.9841 -0.1109 -1.4852
13781SOL     OW42762   7.368   5.982   6.043  0.0268 -0.3616 -0.1998
13781SOL    HW142763   7.318   5.914   6.088 -0.9211 -0.1962 -0.9680
13781SOL    HW242764   7.389   6.045   6.112 -1.5668 -0.0208  0.0231
13782SOL     OW42765   5.358   4.621   7.970 -0.0439 -0.5113  0.3128
13782SOL    HW142766   5.344   4.682   8.043 -1.0052 -0.2043 -0.1141
13782SOL    HW242767   5.451   4.599   7.976 -0.5178 -2.2869  3.0168
13783SOL     OW42768   7.704   5.045   0.282 -0.5555 -0.5118  0.2236
13783SOL    HW142769   7.674   5.132   0.258 -0.9572 -0.8908 -0.7000
13783SOL    HW242770   7.725   5.002   0.199 -0.2665 -1.2552  0.6668
13784SOL     OW42771   0.135   5.066   2.721 -0.0114  0.2472 -0.2710
13784SOL    HW142772   0.064   5.130   2.715  0.5610  0.9186 -0.0116
13784SOL    HW242773   0.213   5.118   2.738  0.3017 -0.6176  1.0703
13785SOL     OW42774   1.134   3.512   0.710 -0.3076  0.7393 -0.0506
13785SOL    HW142775   1.197   3.573   0.672 -0.4854  1.6594  1.0871
13785SOL    HW242776   1.189   3.448   0.757 -0.1352  0.1876 -0.9879
13786SOL     OW42777   1.289   6.998   6.399 -0.2106 -0.0646 -0.2695
13786SOL    HW142778   1.344   6.924   6.424 -1.0086 -0.5242  0.1646
13786SOL    HW242779   1.200   6.966   6.409 -0.5745  0.3485 -1.9288
13787SOL     OW42780   6.666   7.281   6.265  0.0192 -0.4808 -0.0087
13787SOL    HW142781   6.596   7.298   6.329  0.1625 -0.8547  0.2539
13787SOL    HW242782   6.650   7.190   6.238  0.6275 -0.6939  0.3358
13788SOL     OW42783   6.284   0.412   0.171 -0.0215  0.3615  0.1591
13788SOL    HW142784   6.328   0.467   0.107  1.4156  0.4467  1.1789
13788SOL    HW242785   6.350   0.348   0.198 -0.9659 -0.4305  0.6567
13789SOL     OW42786   3.878   6.002   5.252  0.0626 -0.1715 -0.5509
13789SOL    HW142787   3.841   6.081   5.291 -0.2157  0.2541 -1.6312
13789SOL    HW242788   3.803   5.959   5.209  0.4048 -0.4730 -0.8614
13790SOL     OW42789   0.618   1.604   6.777  0.5133  0.1290  0.1476
13790SOL    HW142790   0.674   1.528   6.793  0.9190  0.7146  1.6980
13790SOL    HW242791   0.537   1.584   6.824 -0.0094 -0.0349 -0.7952
13791SOL     OW42792   3.481   7.616   2.528  0.4125  0.2827  0.8378
13791SOL    HW142793   3.466   7.630   2.621  3.0476  1.0663  1.2450
13791SOL    HW242794   3.550   7.550   2.524 -0.8793 -1.0686 -0.6654
13792SOL     OW42795   0.520   3.399   7.714 -0.5670  0.0704 -0.9536
13792SOL    HW142796   0.596   3.404   7.771 -0.1454  0.0471 -1.5065
13792SOL    HW242797   0.535   3.320   7.662 -1.1637 -0.1553 -0.7951
13793SOL     OW42798   3.542   6.525   7.770  0.1704  0.3648  0.2241
13793SOL    HW142799   3.467   6.496   7.823 -0.4756  0.5075 -0.5946
13793SOL    HW242800   3.534   6.475   7.689  2.8960 -2.2077  1.3677
13794SOL     OW42801   4.996   5.272   1.885  0.0853  0.0245 -0.4592
13794SOL    HW142802   5.085   5.240   1.902 -0.7730 -1.9584  0.6036
13794SOL    HW242803   4.959   5.285   1.972 -0.2995  2.0533 -0.8814
13795SOL     OW42804   1.647   0.070   0.039  0.3014  0.0578 -0.3308
13795SOL    HW142805   1.590   0.127   0.090  1.1503 -2.0182  3.2839
13795SOL    HW242806   1.611  -0.017   0.051  2.2041 -0.8568 -0.9000
13796SOL     OW42807   5.938   2.403   6.737  0.2377 -0.0317  0.0015
13796SOL    HW142808   5.983   2.376   6.817  0.2489  0.3676  0.1377
13796SOL    HW242809   5.846   2.412   6.764  0.4310  1.2984  0.2973
13797SOL     OW42810   3.055   1.340   6.350  0.4656  0.7307  0.1981
13797SOL    HW142811   3.115   1.291   6.406  1.8045 -0.0710 -1.8457
13797SOL    HW242812   2.970   1.332   6.394  0.8593 -2.3506  0.6341
13798SOL     OW42813   0.303   7.675   7.567  0.2971 -0.0245 -0.1806
13798SOL    HW142814   0.363   7.724   7.511 -0.9797  1.0549 -0.6552
13798SOL    HW242815   0.358   7.609   7.609  1.5071 -0.1807 -1.8789
13799SOL     OW42816   6.944   0.827   4.892  0.5145  0.6985 -0.2400
13799SOL    HW142817   6.902   0.814   4.807 -1.0636  0.9670  0.4780
13799SOL    HW242818   6.899   0.901   4.931  1.7685  1.0982  0.5077
13800SOL     OW42819   4.009   4.189   2.881  0.5482  0.3547 -0.1819
13800SOL    HW142820   3.927   4.141   2.867  0.4620 -0.2107  1.9331
13800SOL    HW242821   4.070   4.152   2.818 -0.0239 -1.3191  0.2018
13801SOL     OW42822   4.242   3.537   4.550 -0.1626 -0.0020 -0.4362
13801SOL    HW142823   4.281   3.506   4.468  1.4590  0.9249 -0.0740
13801SOL    HW242824   4.276   3.478   4.617 -0.3074  0.1147 -0.2585
13802SOL     OW42825   7.704   0.637   5.908  0.3933  0.1119  0.3642
13802SOL    HW142826   7.795   0.644   5.935  0.1098 -0.8337  1.7074
13802SOL    HW242827   7.702   0.668   5.818  2.3287 -1.3863 -0.2497
13803SOL     OW42828   4.842   6.793   1.088  0.1062  0.5907  0.0005
13803SOL    HW142829   4.900   6.717   1.093 -2.4455 -1.5205 -0.5409
13803SOL    HW242830   4.814   6.796   0.997 -0.4008  1.7433  0.1805
13804SOL     OW42831   7.241   0.321   2.268  0.3180  0.0414  0.2036
13804SOL    HW142832   7.235   0.228   2.291  0.1744  0.4720  2.0422
13804SOL    HW242833   7.151   0.346   2.248  0.5485 -0.5169 -1.7331
13805SOL     OW42834   0.450   2.057   4.918  0.5157 -0.0348  0.1591
13805SOL    HW142835   0.529   2.050   4.971  1.2194  0.6421 -0.7604
13805SOL    HW242836   0.379   2.065   4.981  1.3459  0.9092  0.9988
13806SOL     OW42837   4.212   5.616   0.517  0.3461  0.2624  0.4635
13806SOL    HW142838   4.282   5.577   0.464 -0.5459  0.4708 -0.9251
13806SOL    HW242839   4.201   5.704   0.480 -0.6802  0.2100  0.6366
13807SOL     OW42840   7.693   2.636   3.573  0.1059  0.0134  0.3080
13807SOL    HW142841   7.651   2.635   3.660 -0.1807 -1.0497  0.1708
13807SOL    HW242842   7.691   2.728   3.547 -1.8557  0.0710  0.4645
13808SOL     OW42843   7.149   7.391   4.728 -0.3375 -0.4122  0.1676
13808SOL    HW142844   7.140   7.325   4.659  3.0935 -0.4749 -0.4022
13808SOL    HW242845   7.172   7.340   4.806 -2.4135 -0.1866  0.9913
13809SOL     OW42846   3.016   0.806   5.462  0.0398 -0.3645 -0.3173
13809SOL    HW142847   2.944   0.823   5.402  0.1462 -0.5989 -0.5109
13809SOL    HW242848   3.092   0.848   5.421 -0.0555  0.1947  0.0605
13810SOL     OW42849   3.887   4.673   2.803  0.2936  0.2651 -0.6121
13810SOL    HW142850   3.804   4.634   2.775 -0.6797 -0.5019  2.8188
13810SOL    HW242851   3.868   4.766   2.812  0.0143  0.2068 -0.5827
13811SOL     OW42852   3.005   0.663   0.396 -0.6308 -0.0941 -0.2584
13811SOL    HW142853   3.101   0.664   0.390 -0.5804  2.2437  0.1307
13811SOL    HW242854   2.987   0.628   0.483  0.0493  2.5116  1.0194
13812SOL     OW42855   4.636   7.158   6.756 -0.1656 -0.0496  0.1049
13812SOL    HW142856   4.616   7.118   6.841  2.0439  0.1959  0.8076
13812SOL    HW242857   4.615   7.251   6.768 -0.5315 -0.1346  0.1364
13813SOL     OW42858   0.203   6.040   0.256 -0.2660 -0.4193  0.7328
13813SOL    HW142859   0.126   6.095   0.242 -0.8938 -1.4356  0.0645
13813SOL    HW242860   0.204   6.023   0.350 -0.0519  0.7178  0.9521
13814SOL     OW42861   4.845   4.204   1.846  0.0618  0.1882 -0.5009
13814SOL    HW142862   4.819   4.232   1.759  0.5648 -0.3904 -0.8479
13814SOL    HW242863   4.802   4.119   1.858 -0.1375  0.3409 -0.1180
13815SOL     OW42864   6.202   1.115   7.591  0.0154  0.1419  0.4709
13815SOL    HW142865   6.271   1.059   7.625 -0.0605 -1.4314 -1.7174
13815SOL    HW242866   6.145   1.132   7.666 -0.4911 -3.5923  1.1247
13816SOL     OW42867   2.667   6.964   2.456 -0.5477  0.5372  0.1315
13816SOL    HW142868   2.724   6.950   2.531 -1.1742  0.9200  0.6872
13816SOL    HW242869   2.642   6.875   2.429 -0.7525  0.4129  0.7162
13817SOL     OW42870   3.367   1.406   3.639  0.6039  0.1930 -0.4815
13817SOL    HW142871   3.336   1.324   3.679  2.2051 -0.1138  0.1910
13817SOL    HW242872   3.372   1.468   3.711 -0.8131  0.9969 -1.0240
13818SOL     OW42873   7.243   7.537   6.612 -0.4033  0.1083 -0.0182
13818SOL    HW142874   7.203   7.569   6.532 -1.0154 -0.3767  0.0867
13818SOL    HW242875   7.176   7.483   6.653  0.2394 -0.4574  0.3258
13819SOL     OW42876   1.191   4.942   2.629  0.3809 -0.1189 -0.2433
13819SOL    HW142877   1.227   4.918   2.714  1.6979  1.8970 -0.1910
13819SOL    HW242878   1.113   4.887   2.620  0.4995 -0.7360  2.0229
13820SOL     OW42879   0.348   7.081   1.845  0.2920  0.0884  0.4058
13820SOL    HW142880   0.266   7.033   1.833  0.0681  0.7397 -0.8892
13820SOL    HW242881   0.415   7.025   1.805  0.5388 -0.5847  1.7387
13821SOL     OW42882   3.467   5.748   1.648 -0.2765 -0.4695 -0.0519
13821SOL    HW142883   3.387   5.800   1.656 -0.3434 -0.3968 -1.0465
13821SOL    HW242884   3.537   5.813   1.642 -0.1385 -0.5330  0.7812
13822SOL     OW42885   3.369   1.048   7.400 -0.3921  0.1785 -0.2010
13822SOL    HW142886   3.329   1.134   7.383  0.5363  0.7714  0.5443
13822SOL    HW242887   3.343   0.995   7.325  0.0613  1.4747 -1.3247
13823SOL     OW42888   0.964   7.644   3.243  0.4284  0.1636 -0.1098
13823SOL    HW142889   1.056   7.669   3.253  0.5329  0.3628 -1.4556
13823SOL    HW242890   0.959   7.555   3.278  1.2655 -0.1000 -0.6417
13824SOL     OW42891   0.395   4.543   4.330 -0.2822 -0.4102  0.1219
13824SOL    HW142892   0.466   4.588   4.283 -0.1784 -0.5309  0.1605
13824SOL    HW242893   0.396   4.581   4.417 -0.6962  0.0529 -0.0722
13825SOL     OW42894   3.794   6.347   6.005 -0.3200  0.0611 -0.1905
13825SOL    HW142895   3.867   6.285   6.006  1.0629  1.5766  1.6413
13825SOL    HW242896   3.810   6.402   5.929  1.3538  1.2927  0.9861
13826SOL     OW42897   0.582   5.427   4.326  0.4651 -0.2250  0.5044
13826SOL    HW142898   0.635   5.426   4.406  0.2599 -1.4042  0.6359
13826SOL    HW242899   0.609   5.350   4.277  0.7143  0.5727 -0.6708
13827SOL     OW42900   5.846   5.296   3.077  0.1503 -0.2057 -0.2377
13827SOL    HW142901   5.875   5.386   3.065  0.7655 -0.4802 -0.8948
13827SOL    HW242902   5.840   5.285   3.172  3.1978 -0.4086  0.0328
13828SOL     OW42903   3.268   1.451   7.304 -0.2722 -0.1695 -0.4349
13828SOL    HW142904   3.326   1.412   7.239 -0.3915 -0.0170 -0.6359
13828SOL    HW242905   3.253   1.540   7.271 -1.4448 -0.5299 -0.9266
13829SOL     OW42906   3.409   1.029   6.184 -0.1166  0.4663  0.3997
13829SOL    HW142907   3.444   1.115   6.159 -0.0859  0.5701  0.7944
13829SOL    HW242908   3.456   1.006   6.264 -0.0640  0.0388  0.2507
13830SOL     OW42909   1.481   7.317   7.647 -0.1691  0.2148  0.3285
13830SOL    HW142910   1.400   7.323   7.597 -2.3434 -0.6338  3.4699
13830SOL    HW242911   1.514   7.228   7.629  0.9645  1.0127 -2.0149
13831SOL     OW42912   4.662   7.893   5.699  0.0095  0.1791  0.1474
13831SOL    HW142913   4.727   7.962   5.709 -0.1717  0.3567  0.1086
13831SOL    HW242914   4.687   7.848   5.618 -0.1301  0.4811 -0.0674
13832SOL     OW42915   0.909   4.608   8.027 -0.1232  0.4214  0.6941
13832SOL    HW142916   1.004   4.611   8.012 -0.0537 -0.3989  0.9600
13832SOL    HW242917   0.886   4.516   8.019 -1.2245  0.8043 -1.2578
13833SOL     OW42918   5.467   1.408   3.701  0.2345 -0.3760 -0.5361
13833SOL    HW142919   5.392   1.348   3.699  1.7008 -2.3264  0.2032
13833SOL    HW242920   5.539   1.356   3.734  2.2139  1.1726 -2.1189
13834SOL     OW42921   4.185   7.797   4.551  0.5747 -0.3972 -0.3213
13834SOL    HW142922   4.208   7.728   4.489 -3.1714 -2.2658  0.0956
13834SOL    HW242923   4.243   7.782   4.626  1.5896 -1.4301 -1.2724
13835SOL     OW42924   0.574   7.640   6.043  0.3467 -0.0310 -0.1835
13835SOL    HW142925   0.490   7.615   6.003 -0.2065 -1.6109  1.7726
13835SOL    HW242926   0.616   7.557   6.065  1.8275  0.7460  0.0675
13836SOL     OW42927   6.095   2.424   6.038 -0.2490  0.1704  0.0757
13836SOL    HW142928   6.047   2.342   6.052  0.3483 -0.7526 -2.6631
13836SOL    HW242929   6.060   2.484   6.104 -2.6624 -1.4756  0.4290
13837SOL     OW42930   0.077   5.524   7.375  0.2354 -0.7804  0.0722
13837SOL    HW142931  -0.009   5.487   7.356 -0.7682  2.0469 -1.4156
13837SOL    HW242932   0.094   5.497   7.465 -3.3754  0.5151  1.3380
13838SOL     OW42933   4.779   6.501   2.414  0.5597 -0.0419  0.5948
13838SOL    HW142934   4.787   6.413   2.377  1.2991  0.1967  0.1497
13838SOL    HW242935   4.693   6.503   2.454  0.2196 -0.7164 -0.0721
13839SOL     OW42936   0.470   5.425   7.315 -0.1790  0.1958  0.0493
13839SOL    HW142937   0.422   5.503   7.286 -0.8896  0.5534  2.0280
13839SOL    HW242938   0.430   5.353   7.265 -1.2856  0.7763  0.0597
13840SOL     OW42939   2.426   0.698   0.318 -0.3205 -0.2995 -0.1667
13840SOL    HW142940   2.458   0.631   0.258  0.8460  0.8129 -0.8068
13840SOL    HW242941   2.466   0.779   0.289 -0.7429  0.4950  1.3414
13841SOL     OW42942   0.652   5.759   4.809  0.0919 -0.2139 -0.2403
13841SOL    HW142943   0.706   5.828   4.848 -0.8001 -0.2011  1.0294
13841SOL    HW242944   0.627   5.795   4.724 -0.5133  1.1316  0.4663
13842SOL     OW42945   7.544   2.255   5.362  0.4247 -0.6442  0.0551
13842SOL    HW142946   7.622   2.204   5.386  0.8667  0.5485  1.2506
13842SOL    HW242947   7.481   2.235   5.432  0.1942 -0.4434 -0.0977
13843SOL     OW42948   5.282   4.513   1.409  0.0722  0.1428 -0.0809
13843SOL    HW142949   5.303   4.601   1.378 -0.1147 -0.0979 -0.9281
13843SOL    HW242950   5.347   4.495   1.477  0.0318  0.9798  0.1947
13844SOL     OW42951   6.961   4.782   6.839 -0.4823 -0.4527 -0.3698
13844SOL    HW142952   7.004   4.738   6.912  0.2994  0.5437 -0.2070
13844SOL    HW242953   6.890   4.831   6.879  0.9929  1.4957  0.0276
13845SOL     OW42954   3.989   3.439   2.809  0.4040  0.4778 -0.0758
13845SOL    HW142955   4.003   3.459   2.902  0.1531  0.1372  0.0361
13845SOL    HW242956   3.920   3.499   2.782  1.1406  1.2509 -0.2943
13846SOL     OW42957   6.793   7.743   0.626 -0.0747  0.1947  0.0566
13846SOL    HW142958   6.808   7.786   0.542  0.1849  0.3152  0.1631
13846SOL    HW242959   6.878   7.746   0.671  0.3904 -1.8504 -0.5703
13847SOL     OW42960   5.365   7.501   1.716 -0.2614  0.0451 -0.3839
13847SOL    HW142961   5.370   7.517   1.622  1.8325 -2.6297 -0.8656
13847SOL    HW242962   5.307   7.425   1.724 -0.0944 -0.0043  0.4499
13848SOL     OW42963   0.945   4.711   1.826 -0.2816  0.6626 -0.5728
13848SOL    HW142964   0.892   4.668   1.893  1.1771  0.2944  0.3999
13848SOL    HW242965   0.882   4.739   1.760 -1.8904  1.6468  1.2483
13849SOL     OW42966   7.035   4.924   8.059  0.0103  0.4954 -0.5434
13849SOL    HW142967   7.112   4.885   8.017 -1.3537 -1.5210 -1.3359
13849SOL    HW242968   6.979   4.849   8.082 -1.5089  1.8563  0.4390
13850SOL     OW42969   1.636   3.074   7.113 -0.2013 -0.2166  0.0054
13850SOL    HW142970   1.675   3.022   7.184 -0.8573 -0.5531  0.1233
13850SOL    HW242971   1.708   3.087   7.051  0.2456 -0.3557  0.4837
13851SOL     OW42972   5.615   1.299   5.724 -0.2829 -0.1059  0.3894
13851SOL    HW142973   5.589   1.217   5.681  1.0240 -0.6443  0.5577
13851SOL    HW242974   5.591   1.287   5.816 -1.4411  0.3129  0.1501
13852SOL     OW42975   7.811   3.279   3.491  0.2127  0.3835 -0.4612
13852SOL    HW142976   7.890   3.228   3.470 -0.1516 -0.5603  0.3745
13852SOL    HW242977   7.826   3.311   3.580 -0.1198  0.6521 -0.4993
13853SOL     OW42978   3.409   6.514   4.862  0.4127 -0.0197 -0.0695
13853SOL    HW142979   3.416   6.610   4.855  2.1923 -0.1040  0.0654
13853SOL    HW242980   3.495   6.482   4.837 -0.2340 -1.6264 -0.3397
13854SOL     OW42981   4.870   4.370   4.874 -0.7634  0.2515  0.8105
13854SOL    HW142982   4.799   4.328   4.825  0.5143 -0.9731 -0.0806
13854SOL    HW242983   4.926   4.408   4.807 -0.1779  0.5379  1.4507
13855SOL     OW42984   5.426   0.771   0.257 -0.5510 -0.5859  0.0469
13855SOL    HW142985   5.394   0.861   0.255  0.9266  0.0592  1.9822
13855SOL    HW242986   5.499   0.773   0.319 -1.1704 -3.3354  1.0048
13856SOL     OW42987   3.835   7.751   2.349 -0.1533 -0.0291  0.5138
13856SOL    HW142988   3.893   7.676   2.364  1.3268  1.1960  1.1854
13856SOL    HW242989   3.747   7.717   2.364  0.4039 -1.8504 -0.1322
13857SOL     OW42990   5.129   5.162   6.969  0.3228  0.3547 -0.4715
13857SOL    HW142991   5.158   5.252   6.958  1.1655 -0.1241 -2.6665
13857SOL    HW242992   5.195   5.121   7.025 -1.0384  1.4608  2.1686
13858SOL     OW42993   1.529   0.834   7.092  0.2436 -0.2714 -0.0374
13858SOL    HW142994   1.520   0.764   7.027 -0.3987 -0.3686  0.1500
13858SOL    HW242995   1.508   0.914   7.044  0.0200 -0.3169 -0.0197
13859SOL     OW42996   6.104   6.350   0.729 -0.1128 -0.0156  0.2262
13859SOL    HW142997   6.199   6.366   0.730 -0.3916  2.5300  3.3560
13859SOL    HW242998   6.091   6.283   0.795 -0.4590 -1.5499 -1.3235
13860SOL     OW42999   6.625   7.958   2.860 -0.1575  0.4597  0.2183
13860SOL    HW143000   6.706   7.936   2.814 -0.1394 -1.1026  0.9167
13860SOL    HW243001   6.627   7.903   2.939 -2.1203  0.0133  0.0139
13861SOL     OW43002   2.171   3.877   2.961 -0.6015 -0.1457  0.4318
13861SOL    HW143003   2.211   3.830   2.888  1.9187  1.5049  0.6126
13861SOL    HW243004   2.218   3.846   3.039 -0.2245  1.1944  0.7718
13862SOL     OW43005   6.460   0.957   6.384  0.1664  0.1383 -0.0598
13862SOL    HW143006   6.490   1.033   6.434  1.3919 -0.9917  0.9586
13862SOL    HW243007   6.420   0.899   6.448  3.3432 -2.1483  0.0687
13863SOL     OW43008   2.159   4.354   3.622 -0.0730  0.5543  0.3708
13863SOL    HW143009   2.154   4.279   3.562 -1.6422  1.6811 -1.0000
13863SOL    HW243010   2.252   4.361   3.644  0.6359  0.2953 -2.2585
13864SOL     OW43011   4.795   7.991   4.124  0.0469  0.1099  0.1292
13864SOL    HW143012   4.887   7.987   4.149  0.0325  0.2582  0.2103
13864SOL    HW243013   4.748   7.946   4.194 -0.0375  0.9259  0.6188
13865SOL     OW43014   7.722   5.006   7.405 -0.0049 -0.1260 -0.2096
13865SOL    HW143015   7.659   4.955   7.455  0.2929  0.1877  0.4982
13865SOL    HW243016   7.778   4.941   7.362  0.5849 -0.4137  0.9558
13866SOL     OW43017   7.298   1.368   6.532 -0.1960  1.0340  0.7013
13866SOL    HW143018   7.295   1.292   6.474 -2.2454  0.9361  0.8778
13866SOL    HW243019   7.280   1.332   6.619 -0.5345  1.6409  0.8867
13867SOL     OW43020   3.784   1.399   3.189  0.2940  0.9796 -0.9893
13867SOL    HW143021   3.825   1.482   3.164  1.5422  0.9841  0.8984
13867SOL    HW243022   3.713   1.425   3.248  2.1231  0.6982  1.4896
13868SOL     OW43023   4.918   3.347   3.764 -0.3970 -0.0746 -0.4056
13868SOL    HW143024   4.855   3.280   3.790  1.0264 -0.1992  3.2442
13868SOL    HW243025   5.004   3.308   3.782  0.5088  2.4527  1.3273
13869SOL     OW43026   6.637   2.832   6.618 -0.3678  0.2158 -0.1297
13869SOL    HW143027   6.652   2.751   6.569 -1.2632 -0.6691  1.0200
13869SOL    HW243028   6.592   2.804   6.697  0.6458  1.6655  0.9989
13870SOL     OW43029   5.686   7.322   7.811  0.4961 -0.6077 -0.6869
13870SOL    HW143030   5.694   7.344   7.718  0.1211 -2.1297 -1.1123
13870SOL    HW243031   5.593   7.305   7.824  0.5209 -0.2280  0.0159
13871SOL     OW43032   2.470   3.872   3.541 -0.0246 -1.0169 -0.5446
13871SOL    HW143033   2.509   3.917   3.616 -1.7453 -0.8119  0.2611
13871SOL    HW243034   2.470   3.939   3.471 -0.4896 -0.4776 -0.0389
13872SOL     OW43035   5.289   5.779   6.002 -0.0247 -0.3642 -0.5108
13872SOL    HW143036   5.324   5.840   5.937  0.3987  1.3722  1.2500
13872SOL    HW243037   5.299   5.693   5.962  2.2702  0.4432 -1.8569
13873SOL     OW43038   2.508   0.428   6.403  0.2983  0.0750 -0.0669
13873SOL    HW143039   2.453   0.378   6.463  0.7585  2.0598  2.1935
13873SOL    HW243040   2.596   0.418   6.438  0.7095  0.5887 -0.9398
13874SOL     OW43041   7.544   7.019   1.027 -0.1811 -0.0577 -0.3706
13874SOL    HW143042   7.634   7.014   1.062 -0.2005 -1.5072 -0.4308
13874SOL    HW243043   7.497   7.074   1.090  0.9889  1.6797 -0.9384
13875SOL     OW43044   1.602   6.562   5.000 -0.3086 -0.3881 -0.0175
13875SOL    HW143045   1.687   6.570   5.045  0.8910  2.3501 -2.4201
13875SOL    HW243046   1.552   6.638   5.029  0.7401  1.8505 -3.3955
13876SOL     OW43047   5.816   4.378   5.207 -0.1771  0.7564 -0.1653
13876SOL    HW143048   5.897   4.417   5.174 -0.8442  2.3191 -0.0492
13876SOL    HW243049   5.818   4.288   5.174  2.0606  0.4358  0.6704
13877SOL     OW43050   0.193   4.274   3.498  0.8950  0.3448  0.3752
13877SOL    HW143051   0.214   4.335   3.569  0.8980  1.7992 -0.8281
13877SOL    HW243052   0.184   4.189   3.541  0.7355  1.2145  2.1295
13878SOL     OW43053   6.284   2.564   6.403 -0.3143  0.1664 -0.9488
13878SOL    HW143054   6.204   2.548   6.353 -0.7535  0.0117 -0.2045
13878SOL    HW243055   6.267   2.644   6.452 -0.1477 -0.0575 -0.5184
13879SOL     OW43056   4.768   2.908   1.005 -0.1869 -0.1092 -0.0393
13879SOL    HW143057   4.680   2.875   0.985  0.0486 -0.1828 -0.9871
13879SOL    HW243058   4.812   2.912   0.920  0.4339  0.7946  0.3092
13880SOL     OW43059   3.024   7.443   2.861 -0.5806 -0.3320 -1.0614
13880SOL    HW143060   2.996   7.486   2.780  1.0725 -0.5816 -1.8183
13880SOL    HW243061   3.078   7.508   2.906 -0.1520 -0.7380 -0.9727
13881SOL     OW43062   0.319   6.875   4.963 -0.0415  0.2553  0.4129
13881SOL    HW143063   0.337   6.783   4.983  0.7936  0.2446 -0.3419
13881SOL    HW243064   0.248   6.872   4.898 -0.0860  0.1490  0.4663
13882SOL     OW43065   3.142   4.120   7.363  0.0943  0.1610  0.2564
13882SOL    HW143066   3.166   4.062   7.291 -0.2379 -1.5580  1.4684
13882SOL    HW243067   3.222   4.169   7.383  0.6197 -0.4790 -0.2458
13883SOL     OW43068   6.154   7.180   3.527 -0.0621 -0.3152  0.1622
13883SOL    HW143069   6.148   7.209   3.436  0.1332 -0.3744  0.1295
13883SOL    HW243070   6.245   7.196   3.551 -0.3318  0.5608  0.6389
13884SOL     OW43071   6.742   2.180   5.408  0.2808 -0.2208  0.6765
13884SOL    HW143072   6.748   2.272   5.434  1.3488 -0.4866  1.4650
13884SOL    HW243073   6.740   2.131   5.491  0.8832 -0.9567  0.2717
13885SOL     OW43074   0.789   7.611   1.492  0.0576 -0.2106  0.4223
13885SOL    HW143075   0.840   7.564   1.558  1.7451  2.2745  1.0297
13885SOL    HW243076   0.840   7.602   1.412 -1.0386 -1.6598 -0.1482
13886SOL     OW43077   2.932   0.647   6.290 -0.0620  0.9088  0.5166
13886SOL    HW143078   3.018   0.620   6.322 -0.3700  0.0785  0.6792
13886SOL    HW243079   2.909   0.579   6.226 -0.0735  1.7714 -0.4165
13887SOL     OW43080   4.875   4.317   3.976  0.4722  0.0268  0.2896
13887SOL    HW143081   4.838   4.365   4.051 -1.2708  0.0921 -0.5688
13887SOL    HW243082   4.954   4.275   4.012 -0.5168 -0.2760  2.2849
13888SOL     OW43083   4.825   6.433   5.715  0.1423 -0.1482  0.4846
13888SOL    HW143084   4.859   6.512   5.756 -2.3533  1.6710 -0.7151
13888SOL    HW243085   4.798   6.378   5.789  1.5048  0.2661  1.3327
13889SOL     OW43086   6.317   2.071   7.457 -0.0589  0.1562 -0.4660
13889SOL    HW143087   6.270   2.117   7.388 -0.7957 -0.8184 -0.6273
13889SOL    HW243088   6.409   2.072   7.428 -0.3883 -0.4469 -1.5851
13890SOL     OW43089   2.676   4.743   3.431  0.4617  0.5718  0.1935
13890SOL    HW143090   2.703   4.664   3.384 -0.6912 -0.0055  0.4491
13890SOL    HW243091   2.595   4.771   3.388 -1.3623 -0.7123  2.5140
13891SOL     OW43092   7.328   7.532   7.125  0.4076 -0.2383  0.4683
13891SOL    HW143093   7.307   7.443   7.154 -0.2074 -0.1055  0.4597
13891SOL    HW243094   7.272   7.546   7.048  0.2117  0.2923  0.6986
13892SOL     OW43095   6.717   4.417   5.863 -0.2134  0.4704 -0.2849
13892SOL    HW143096   6.702   4.444   5.772 -0.9328  1.0519 -0.0019
13892SOL    HW243097   6.651   4.464   5.913  1.6271  2.0084  0.8447
13893SOL     OW43098   7.490   1.880   4.265 -0.4788 -0.2628 -0.0616
13893SOL    HW143099   7.484   1.891   4.170  0.5016 -0.7735 -0.1899
13893SOL    HW243100   7.496   1.786   4.279  0.8882 -0.1362  0.3945
13894SOL     OW43101   4.141   4.191   7.911  0.6575 -0.2074 -0.2697
13894SOL    HW143102   4.175   4.275   7.941  0.1765 -0.5391  1.3144
13894SOL    HW243103   4.219   4.139   7.891  0.9857  0.1980 -0.0604
13895SOL     OW43104   6.781   7.952   1.615 -0.6819  0.1425  0.5030
13895SOL    HW143105   6.852   7.969   1.676 -0.1857  1.2331 -0.3457
13895SOL    HW243106   6.710   8.010   1.643 -0.9550 -0.3466  0.8485
13896SOL     OW43107   4.395   6.692   2.525  0.2792  0.7514  0.3836
13896SOL    HW143108   4.468   6.735   2.570  0.8914 -0.5071  0.6374
13896SOL    HW243109   4.317   6.739   2.555  0.9531  1.9831  0.2656
13897SOL     OW43110   7.424   7.499   2.505  0.2436  0.6771  0.1345
13897SOL    HW143111   7.412   7.592   2.485  2.1267  0.9825  0.2863
13897SOL    HW243112   7.452   7.459   2.423 -0.0576  0.3331  0.1944
13898SOL     OW43113   7.509   0.938   5.756 -0.2439  0.0855  0.1441
13898SOL    HW143114   7.597   0.901   5.753 -1.1096 -2.1363  0.1137
13898SOL    HW243115   7.485   0.936   5.849 -0.2085  0.8252  0.1702
13899SOL     OW43116   2.770   6.507   5.938  0.4624 -0.1714  0.0092
13899SOL    HW143117   2.755   6.422   5.979 -1.2411 -0.2547 -0.7261
13899SOL    HW243118   2.758   6.492   5.845 -3.4714  1.4566  0.0454
13900SOL     OW43119   3.633   1.616   5.939  0.4358 -0.5313  0.2361
13900SOL    HW143120   3.682   1.559   5.880  2.8108 -0.4874  2.0127
13900SOL    HW243121   3.698   1.679   5.971 -1.0282  0.2218  1.9232
13901SOL     OW43122   1.787   0.354   5.210 -0.1259 -0.8501 -0.8404
13901SOL    HW143123   1.810   0.335   5.301 -0.7568  1.4042 -0.1509
13901SOL    HW243124   1.695   0.379   5.214  0.1496  0.4259 -1.8858
13902SOL     OW43125   1.806   7.414   0.005  0.1329  0.1219  0.2949
13902SOL    HW143126   1.881   7.355   0.004  1.0241  1.2107  0.9166
13902SOL    HW243127   1.752   7.386  -0.070  0.8912 -1.0001  0.1545
13903SOL     OW43128   6.657   7.491   2.946 -0.5531 -0.3464  0.3502
13903SOL    HW143129   6.693   7.404   2.961 -2.5527 -1.2064  0.4774
13903SOL    HW243130   6.714   7.530   2.880 -0.6130 -2.4471 -1.0437
13904SOL     OW43131   1.296   5.338   3.102 -0.5113 -0.6543 -0.3563
13904SOL    HW143132   1.375   5.377   3.066 -0.8621 -0.4821 -0.9508
13904SOL    HW243133   1.314   5.329   3.195  0.4230 -1.1399 -0.5740
13905SOL     OW43134   2.899   3.049   0.118 -0.1312  0.1446 -0.5545
13905SOL    HW143135   2.902   3.105   0.041  1.6987  1.1293  0.1591
13905SOL    HW243136   2.959   2.977   0.098 -0.3066 -0.0474 -0.3868
13906SOL     OW43137   1.131   2.203   1.053 -0.4552  0.1830 -0.5896
13906SOL    HW143138   1.057   2.144   1.035  0.6752 -1.0381 -1.3957
13906SOL    HW243139   1.181   2.205   0.971  1.8613 -1.1516  0.6952
13907SOL     OW43140   7.101   3.832   3.017  0.6497  0.6610  0.1129
13907SOL    HW143141   7.187   3.826   2.976  0.6579  0.6550  0.1309
13907SOL    HW243142   7.119   3.821   3.111  0.8482  2.5169  0.3182
13908SOL     OW43143   7.977   0.995   5.911  0.2111 -0.1632 -0.8198
13908SOL    HW143144   8.066   0.999   5.878  1.2690 -0.1610  1.8227
13908SOL    HW243145   7.962   1.081   5.952 -0.4116 -0.7050  0.1311
13909SOL     OW43146   1.815   6.898   7.282  0.4419  0.6694  0.3081
13909SOL    HW143147   1.823   6.989   7.253 -1.1132  0.6150 -0.3863
13909SOL    HW243148   1.813   6.847   7.202  2.0955 -0.0954  0.7047
13910SOL     OW43149   7.680   7.666   6.351  0.4345  0.6506  0.2684
13910SOL    HW143150   7.764   7.672   6.304 -0.8434 -0.3456 -2.3528
13910SOL    HW243151   7.656   7.757   6.368  1.8848  0.9675  0.8312
13911SOL     OW43152   2.824   1.017   2.181 -0.0737  0.0214 -0.4346
13911SOL    HW143153   2.770   1.078   2.232  1.3785  2.2439 -1.3972
13911SOL    HW243154   2.892   0.988   2.242 -0.2814  0.0570 -0.1879
13912SOL     OW43155   7.530   1.049   5.477 -0.6412 -0.2800  0.3405
13912SOL    HW143156   7.528   0.981   5.543  0.3411  0.6776  1.4121
13912SOL    HW243157   7.608   1.101   5.498 -0.6123  0.3910 -1.2319
13913SOL     OW43158   7.499   7.613   4.598 -0.7337  0.0865 -0.1192
13913SOL    HW143159   7.483   7.646   4.510 -1.0393  1.3575  0.3814
13913SOL    HW243160   7.594   7.621   4.609 -0.6470 -0.4218 -0.4509
13914SOL     OW43161   5.789   2.715   3.876  0.0577 -0.2525  0.4187
13914SOL    HW143162   5.728   2.784   3.850 -0.7408 -0.2177  2.2511
13914SOL    HW243163   5.820   2.679   3.793 -1.0581  0.9410 -0.5754
13915SOL     OW43164   4.484   1.446   1.229  0.0211 -0.1212  0.5051
13915SOL    HW143165   4.396   1.437   1.194  0.2481 -2.0640  0.3555
13915SOL    HW243166   4.495   1.541   1.240 -1.8054  0.2121 -0.1242
13916SOL     OW43167   5.312   3.250   2.657  0.2505 -0.1694 -0.2270
13916SOL    HW143168   5.353   3.329   2.693  1.5833 -0.6388 -0.6415
13916SOL    HW243169   5.222   3.252   2.689  0.6137  0.8828  0.7725
13917SOL     OW43170   6.815   6.008   0.251 -0.0641  0.2187  0.0779
13917SOL    HW143171   6.826   5.970   0.338 -0.6266 -1.7887 -0.6786
13917SOL    HW243172   6.889   6.068   0.242  1.7809 -1.8137  0.7731
13918SOL     OW43173   1.924   1.730   5.277 -0.5968  0.3525 -0.2058
13918SOL    HW143174   1.831   1.741   5.294 -0.6972 -0.7001 -0.0008
13918SOL    HW243175   1.943   1.793   5.207 -1.4399  0.6356 -0.1916
13919SOL     OW43176   0.262   2.740   6.767  0.7868  0.5521 -0.5039
13919SOL    HW143177   0.319   2.811   6.795  1.0445 -0.0474  0.5505
13919SOL    HW243178   0.174   2.772   6.787  0.8995  0.5901 -0.0477
13920SOL     OW43179   0.105   2.955   1.387  0.4344  0.2528  0.2256
13920SOL    HW143180   0.158   2.892   1.437  0.1008 -0.4169 -0.2469
13920SOL    HW243181   0.168   3.000   1.331  0.6984  0.4584  0.6815
13921SOL     OW43182   2.576   1.954   2.669  0.0668  0.2264  0.0668
13921SOL    HW143183   2.530   1.903   2.602  1.6489 -0.6881 -0.3678
13921SOL    HW243184   2.609   1.889   2.730  0.3258  0.9102  0.6679
13922SOL     OW43185   4.882   7.228   2.483 -0.1377 -0.4535  0.8953
13922SOL    HW143186   4.791   7.199   2.488 -0.5871  0.8161  0.4465
13922SOL    HW243187   4.917   7.182   2.406  0.2870 -2.6603  2.3286
13923SOL     OW43188   4.047   0.697   3.227 -0.0206 -0.1801 -0.1499
13923SOL    HW143189   3.958   0.671   3.248 -0.4286  1.2384 -0.0087
13923SOL    HW243190   4.100   0.619   3.244 -0.7980 -0.1940  2.7606
13924SOL     OW43191   6.340   7.691   6.914 -0.6928 -0.2554 -0.5912
13924SOL    HW143192   6.274   7.623   6.921 -0.4760 -0.2972  1.9420
13924SOL    HW243193   6.296   7.771   6.943 -0.2463  0.1959 -1.1128
13925SOL     OW43194   3.156   5.676   5.047 -0.0530  0.0944  0.2712
13925SOL    HW143195   3.167   5.623   5.126 -1.5405  0.1629  0.5528
13925SOL    HW243196   3.062   5.672   5.028 -0.0635  1.9045 -0.2160
13926SOL     OW43197   1.904   4.505   4.190 -0.1934  0.0057  0.1393
13926SOL    HW143198   1.984   4.465   4.154  1.2192  0.5439  2.4943
13926SOL    HW243199   1.841   4.499   4.118  1.4337 -1.9577 -1.2636
13927SOL     OW43200   6.137   2.427   2.560  0.5739 -0.0943  0.0732
13927SOL    HW143201   6.224   2.388   2.572  0.5584 -0.0661  0.2727
13927SOL    HW243202   6.076   2.357   2.581  0.5473 -0.1513 -0.1887
13928SOL     OW43203   5.742   5.942   4.971  0.5882  0.4625 -0.2407
13928SOL    HW143204   5.801   5.943   4.895  0.6672  0.6050 -0.1782
13928SOL    HW243205   5.717   5.850   4.981  0.8101  0.3996 -0.2601
13929SOL     OW43206   3.928   5.178   1.809 -1.2470  0.1651  0.2251
13929SOL    HW143207   3.841   5.143   1.787 -2.0403  1.8209  0.5408
13929SOL    HW243208   3.909   5.253   1.866  0.4220  0.3356  0.5914
13930SOL     OW43209   6.911   3.158   5.915 -0.3690 -0.2397 -0.3662
13930SOL    HW143210   6.890   3.175   5.823  0.8933  1.2869 -0.4072
13930SOL    HW243211   6.908   3.244   5.957  0.1513 -0.7666  0.7988
13931SOL     OW43212   4.476   1.069   3.994  0.3053 -0.0674 -0.3354
13931SOL    HW143213   4.443   1.018   4.067 -0.0724 -2.4590 -2.0670
13931SOL    HW243214   4.525   1.007   3.940 -0.3003  1.3303 -2.6604
13932SOL     OW43215   3.724   2.798   5.680 -0.2836  0.4773  0.5225
13932SOL    HW143216   3.741   2.882   5.722  1.8230  0.8498 -0.9211
13932SOL    HW243217   3.690   2.743   5.750 -0.3550  2.1039  1.8337
13933SOL     OW43218   7.968   0.146   3.120  0.4367  0.9149 -0.3167
13933SOL    HW143219   7.976   0.143   3.025 -1.2656 -0.6969 -0.4731
13933SOL    HW243220   7.926   0.230   3.138 -0.2081  0.7730 -1.1068
13934SOL     OW43221   1.234   4.110   5.607 -0.0626  0.5179  0.0938
13934SOL    HW143222   1.182   4.068   5.538 -0.9438  1.3873  0.2233
13934SOL    HW243223   1.250   4.040   5.671  0.5378 -0.2314 -0.8418
13935SOL     OW43224   3.482   0.723   6.646 -0.6896  0.4335  0.4968
13935SOL    HW143225   3.577   0.724   6.652 -0.6068 -1.9719  0.5848
13935SOL    HW243226   3.452   0.694   6.732 -1.4886  0.7118  0.3276
13936SOL     OW43227   7.778   6.895   7.409 -0.1549  0.0242  0.0030
13936SOL    HW143228   7.785   6.990   7.397 -1.5728 -0.0572 -2.1258
13936SOL    HW243229   7.867   6.863   7.402  0.1281  1.0264 -1.4884
13937SOL     OW43230   7.425   0.789   7.520 -0.3685 -0.5932 -0.2412
13937SOL    HW143231   7.357   0.856   7.513  1.0685  0.8223 -1.3918
13937SOL    HW243232   7.403   0.725   7.452 -1.3912 -0.9826  0.4361
13938SOL     OW43233   5.107   5.839   2.601  0.7305 -0.5125 -0.2424
13938SOL    HW143234   5.026   5.860   2.648  1.1481 -1.3582  0.9191
13938SOL    HW243235   5.078   5.812   2.514 -0.0802  1.0094 -0.4772
13939SOL     OW43236   4.750   6.081   6.135 -0.3458  0.4286 -0.4531
13939SOL    HW143237   4.720   6.038   6.215 -2.4429 -1.4163 -2.1103
13939SOL    HW243238   4.710   6.168   6.138  1.0590  1.0844  1.2606
13940SOL     OW43239   2.412   1.879   6.775 -0.1022 -0.4656  0.5707
13940SOL    HW143240   2.426   1.875   6.680 -1.0093  1.5007  0.3041
13940SOL    HW243241   2.375   1.793   6.797  0.8472 -1.2424 -0.7051
13941SOL     OW43242   4.237   7.212   6.265  0.0200  0.2589 -0.4978
13941SOL    HW143243   4.179   7.286   6.284 -1.2301 -0.6065 -0.8012
13941SOL    HW243244   4.290   7.201   6.344 -0.2974  1.0017 -0.1728
13942SOL     OW43245   6.511   4.968   4.525 -0.3398 -0.2310  0.1213
13942SOL    HW143246   6.591   4.934   4.485 -0.0129 -0.7456  1.1649
13942SOL    HW243247   6.447   4.966   4.455  0.4960 -0.0380 -0.6746
13943SOL     OW43248   6.904   3.539   3.415  0.3614 -0.2752  0.1105
13943SOL    HW143249   6.981   3.584   3.379  1.3473 -1.8232  0.1814
13943SOL    HW243250   6.840   3.541   3.344  0.2134  1.5348  0.2388
13944SOL     OW43251   4.965   6.408   3.600  0.2571 -0.4065 -0.2903
13944SOL    HW143252   5.033   6.394   3.535 -1.0191  1.7093 -2.1970
13944SOL    HW243253   4.896   6.455   3.554 -1.1245  0.3830  2.3522
13945SOL     OW43254   4.817   8.002   2.372 -0.2439 -0.6716  0.2364
13945SOL    HW143255   4.837   7.942   2.300  1.2958 -1.3504  1.1881
13945SOL    HW243256   4.869   8.080   2.354  1.3261 -1.4061  1.3146
13946SOL     OW43257   6.962   6.529   6.246 -0.1056  0.2256  0.4123
13946SOL    HW143258   6.954   6.523   6.151  0.0149  0.7610  0.3649
13946SOL    HW243259   7.016   6.607   6.261  0.1759 -0.0564  0.9067
13947SOL     OW43260   2.908   7.455   6.063 -0.2247 -0.4350 -0.0036
13947SOL    HW143261   2.839   7.494   6.009 -0.5399  0.0965  0.7610
13947SOL    HW243262   2.888   7.484   6.152 -0.2836 -2.1141  0.5525
13948SOL     OW43263   0.311   6.876   0.866 -0.3806  0.0949  0.2912
13948SOL    HW143264   0.219   6.899   0.858 -0.6007  0.6248  3.3110
13948SOL    HW243265   0.332   6.833   0.783 -2.2827  3.2618 -2.0703
13949SOL     OW43266   4.340   0.041   5.512 -0.1650 -0.0631 -0.1345
13949SOL    HW143267   4.302   0.104   5.573  0.1936  1.0295 -0.9967
13949SOL    HW243268   4.327  -0.044   5.554 -0.8878  0.5526  0.9477
13950SOL     OW43269   0.456   1.678   4.007 -0.0076 -0.4034  0.2984
13950SOL    HW143270   0.396   1.679   4.082 -0.5686  0.5201 -0.1405
13950SOL    HW243271   0.414   1.735   3.942  1.5256  0.5795  0.1135
13951SOL     OW43272   0.183   5.795   7.093 -0.1303 -0.1228  0.6251
13951SOL    HW143273   0.192   5.884   7.058  0.3765 -0.3859  0.0745
13951SOL    HW243274   0.105   5.760   7.049 -1.0606  0.4487  1.7398
13952SOL     OW43275   2.595   1.203   3.311  0.0024  0.0174  0.1349
13952SOL    HW143276   2.538   1.136   3.350  0.7124 -1.8671 -1.8852
13952SOL    HW243277   2.676   1.198   3.362 -0.1109 -0.3514  0.2838
13953SOL     OW43278   6.812   3.890   3.502 -0.2635  0.0624  0.5410
13953SOL    HW143279   6.806   3.961   3.438 -0.5736  0.7375  1.2968
13953SOL    HW243280   6.773   3.815   3.458  2.7293 -0.5000 -1.3766
13954SOL     OW43281   4.409   4.489   0.373  0.6093 -0.0001 -0.3455
13954SOL    HW143282   4.473   4.498   0.302 -0.7632  0.1107 -1.6281
13954SOL    HW243283   4.417   4.570   0.423  1.3370  0.0971 -0.6108
13955SOL     OW43284   2.558   6.565   6.864 -0.5856  0.2082 -0.1975
13955SOL    HW143285   2.604   6.648   6.875 -0.1885 -0.1119  0.6966
13955SOL    HW243286   2.476   6.589   6.822  0.1818  0.8488 -1.3876
13956SOL     OW43287   5.711   1.224   7.358 -0.2707 -0.0943  0.7953
13956SOL    HW143288   5.702   1.213   7.453 -0.3378  0.6308  0.8745
13956SOL    HW243289   5.638   1.174   7.321 -1.2180  0.9462  1.2004
13957SOL     OW43290   3.278   5.465   7.720  0.7968  0.1003  0.8166
13957SOL    HW143291   3.219   5.390   7.718  0.1340  0.6361 -0.7185
13957SOL    HW243292   3.253   5.513   7.799 -0.4363  0.0277  0.4747
13958SOL     OW43293   0.164   5.355   3.394 -0.3701  0.2147  0.0890
13958SOL    HW143294   0.229   5.286   3.397 -2.2992 -1.7018  2.4411
13958SOL    HW243295   0.136   5.358   3.302  0.0464 -1.8919 -0.1576
13959SOL     OW43296   4.886   7.629   1.149  0.0021  0.0615  0.1730
13959SOL    HW143297   4.909   7.612   1.240 -2.1745 -0.1199  0.7326
13959SOL    HW243298   4.805   7.582   1.134  1.0872 -1.2286 -2.3800
13960SOL     OW43299   6.253   1.946   4.804  0.0456 -1.3418 -0.2483
13960SOL    HW143300   6.325   1.894   4.839  1.4859  0.5127 -0.3492
13960SOL    HW243301   6.230   2.007   4.873  0.6976  0.1460 -1.2970
13961SOL     OW43302   1.899   1.588   7.769  0.0215  0.3241 -0.2620
13961SOL    HW143303   1.976   1.570   7.715 -0.2853 -0.2694 -0.5071
13961SOL    HW243304   1.932   1.645   7.839  0.9534 -0.9188  0.3465
13962SOL     OW43305   4.304   3.204   1.566  0.4897 -0.1081  0.2562
13962SOL    HW143306   4.281   3.191   1.474 -0.1339 -0.3813  0.4425
13962SOL    HW243307   4.321   3.116   1.599  0.7997 -0.0016  0.3802
13963SOL     OW43308   6.543   4.029   4.795 -0.5749 -0.1855 -0.0491
13963SOL    HW143309   6.574   3.939   4.790  0.7686  0.3038 -1.1594
13963SOL    HW243310   6.461   4.024   4.844  0.1077 -1.8362  0.9941
13964SOL     OW43311   1.858   5.850   5.372  0.0376  0.1925 -0.7611
13964SOL    HW143312   1.804   5.818   5.299  0.1827 -0.3240 -0.6484
13964SOL    HW243313   1.948   5.841   5.340  0.3222 -2.9454  0.5340
13965SOL     OW43314   3.818   7.019   6.588  0.0162 -0.3749  0.0840
13965SOL    HW143315   3.860   6.942   6.625 -0.2263 -1.5839 -1.9662
13965SOL    HW243316   3.724   6.998   6.588 -0.1982  0.5253  0.7919
13966SOL     OW43317   7.069   2.080   3.517  0.0768 -0.2645  0.1306
13966SOL    HW143318   7.152   2.074   3.469  0.3706  1.8359  0.3051
13966SOL    HW243319   7.006   2.110   3.452 -0.3898 -1.0863  0.1917
13967SOL     OW43320   1.969   6.665   4.806  0.1841  0.2747 -0.4038
13967SOL    HW143321   2.009   6.712   4.734 -0.0280  0.7280 -0.2297
13967SOL    HW243322   2.039   6.612   4.843  0.3385  0.1909 -0.8217
13968SOL     OW43323   7.294   2.045   1.905  0.3278 -0.7226 -0.0323
13968SOL    HW143324   7.281   2.044   1.810  0.2103 -2.7762 -0.0529
13968SOL    HW243325   7.206   2.048   1.941  0.3714  0.0302  0.0110
13969SOL     OW43326   2.078   0.252   7.581 -0.0092 -0.3685 -0.2965
13969SOL    HW143327   2.050   0.344   7.579 -0.9493 -0.5585  1.5886
13969SOL    HW243328   2.172   0.255   7.562 -0.4200  0.7314 -2.4698
13970SOL     OW43329   7.876   4.652   7.468 -0.1742  0.1317 -0.2855
13970SOL    HW143330   7.873   4.564   7.431 -0.7844 -0.4680  1.1060
13970SOL    HW243331   7.959   4.655   7.517  0.3329  0.6989 -1.1573
13971SOL     OW43332   3.853   1.411   6.478  0.0012 -0.1440 -0.0979
13971SOL    HW143333   3.904   1.392   6.399  0.4115  0.1655  0.0867
13971SOL    HW243334   3.906   1.476   6.525  0.3604 -1.2114  1.0190
13972SOL     OW43335   6.675   5.234   7.779 -0.6205  0.3447 -0.2427
13972SOL    HW143336   6.590   5.213   7.740  0.0925 -1.5956 -0.8578
13972SOL    HW243337   6.662   5.224   7.873 -0.9759 -0.3835 -0.3626
13973SOL     OW43338   0.433   1.010   6.140  0.5991 -0.5732 -0.7094
13973SOL    HW143339   0.342   1.027   6.114  0.7140  1.3839 -0.0263
13973SOL    HW243340   0.485   1.068   6.084  1.1744  0.4136  0.7687
13974SOL     OW43341   6.543   5.039   3.864  0.8532 -0.2863 -0.1602
13974SOL    HW143342   6.505   5.110   3.812  1.9310 -0.7161 -1.5904
13974SOL    HW243343   6.633   5.065   3.878  0.5900 -0.1937  1.5221
13975SOL     OW43344   7.492   3.393   6.194 -0.2974  0.0457  0.5320
13975SOL    HW143345   7.413   3.387   6.140  1.4574  2.1815 -2.6018
13975SOL    HW243346   7.537   3.310   6.179 -0.6519 -0.0812  0.1147
13976SOL     OW43347   1.997   5.238   3.990 -0.1026  0.6392  0.0910
13976SOL    HW143348   1.970   5.150   3.963 -2.4234  0.9015  1.3663
13976SOL    HW243349   1.947   5.297   3.934  0.0527  1.1590  0.4924
13977SOL     OW43350   1.188   0.054   4.002  0.2025  0.9458  0.3067
13977SOL    HW143351   1.226   0.084   3.919  2.4023  0.8269  1.2083
13977SOL    HW243352   1.162  -0.037   3.985 -0.8894  1.4121 -0.6795
13978SOL     OW43353   0.572   6.887   5.421 -0.1192 -0.0296 -0.0096
13978SOL    HW143354   0.507   6.817   5.420  0.3664 -0.4926 -0.7235
13978SOL    HW243355   0.567   6.925   5.333 -1.2313  1.6715  0.7361
13979SOL     OW43356   4.362   1.271   7.055  0.4151 -0.0130 -0.4294
13979SOL    HW143357   4.444   1.274   7.105 -1.6475  0.0996  3.3649
13979SOL    HW243358   4.346   1.177   7.042  0.5281 -0.0898 -0.0351
13980SOL     OW43359   5.048   7.162   5.581 -0.7741  0.3115 -0.2391
13980SOL    HW143360   4.988   7.184   5.652 -1.2249 -0.1771 -0.4545
13980SOL    HW243361   5.045   7.066   5.576 -0.0997  0.2918 -0.3634
13981SOL     OW43362   7.336   7.034   2.228 -0.6545  0.1689 -0.1416
13981SOL    HW143363   7.304   6.984   2.303  0.2923 -0.6197 -0.2375
13981SOL    HW243364   7.374   7.113   2.266  0.8913 -0.7647  0.3620
13982SOL     OW43365   7.093   0.646   2.901 -0.4262 -0.6187  0.1978
13982SOL    HW143366   7.159   0.645   2.832  0.3080  0.6012  0.8559
13982SOL    HW243367   7.143   0.656   2.982 -1.2100 -2.7962  1.0219
13983SOL     OW43368   6.101   6.429   3.140  0.0518 -0.6455 -0.6420
13983SOL    HW143369   6.063   6.505   3.095  1.7561 -0.7636 -2.4327
13983SOL    HW243370   6.137   6.465   3.221 -0.6513  0.1264 -0.6595
13984SOL     OW43371   2.726   7.491   6.864 -0.1088 -0.3687  0.2681
13984SOL    HW143372   2.814   7.462   6.889  0.1311 -0.4782 -0.6621
13984SOL    HW243373   2.741   7.563   6.803 -0.6794  0.0088  0.5658
13985SOL     OW43374   4.106   4.678   0.929 -0.1452 -0.0497  0.1367
13985SOL    HW143375   4.196   4.650   0.946  0.1143 -0.3050 -1.4843
13985SOL    HW243376   4.076   4.715   1.012  2.0974  1.8087  0.2025
13986SOL     OW43377   3.130   3.082   2.198 -0.1169  0.4657 -0.2506
13986SOL    HW143378   3.173   3.065   2.282 -0.5783  1.5481  0.2062
13986SOL    HW243379   3.163   3.011   2.141 -0.7549 -1.0269  1.1523
13987SOL     OW43380   3.776   6.684   4.964  0.1468  0.0146  0.0016
13987SOL    HW143381   3.863   6.646   4.951 -0.6986 -2.6449  1.3648
13987SOL    HW243382   3.791   6.759   5.022  1.5367 -0.4667  0.2986
13988SOL     OW43383   1.342   0.025   6.825 -0.3545  0.4095 -0.2992
13988SOL    HW143384   1.331  -0.049   6.766  0.1730 -1.1615  1.4587
13988SOL    HW243385   1.308  -0.007   6.909  1.4690  1.5185  0.9292
13989SOL     OW43386   6.808   0.086   4.581  0.1452  0.3447  0.5562
13989SOL    HW143387   6.752   0.071   4.657  1.1735 -0.8030  1.1300
13989SOL    HW243388   6.893   0.050   4.607  0.5353 -0.0231 -1.1085
13990SOL     OW43389   6.337   2.827   3.616 -0.3264  0.1063  0.6296
13990SOL    HW143390   6.256   2.785   3.588  0.6813 -1.8686  0.5177
13990SOL    HW243391   6.330   2.833   3.711 -0.8503  0.5363  0.5714
13991SOL     OW43392   5.313   0.390   8.009  0.0074  0.5370  0.1133
13991SOL    HW143393   5.326   0.461   8.073 -1.7168  0.9912  0.0038
13991SOL    HW243394   5.259   0.430   7.941 -1.1755 -0.9339  0.1479
13992SOL     OW43395   5.491   1.272   2.753 -0.0918  0.1642  0.3455
13992SOL    HW143396   5.543   1.347   2.784 -0.7095  0.6673  0.1661
13992SOL    HW243397   5.536   1.196   2.790  1.0790  0.5515 -0.2271
13993SOL     OW43398   0.822   6.108   6.688 -0.7781  0.6093 -0.3381
13993SOL    HW143399   0.846   6.016   6.671 -0.3978  0.6737 -0.1501
13993SOL    HW243400   0.740   6.102   6.735 -2.1129  0.4240 -2.5319
13994SOL     OW43401   1.860   0.037   3.424 -0.5080  0.0803 -0.1020
13994SOL    HW143402   1.953   0.017   3.435 -0.9009 -0.9580  1.8846
13994SOL    HW243403   1.827  -0.033   3.367 -0.7188 -1.7419  2.1224
13995SOL     OW43404   0.864   5.659   4.641 -0.1483 -0.0342 -0.2237
13995SOL    HW143405   0.895   5.719   4.709  0.3434  0.8492 -1.1934
13995SOL    HW243406   0.779   5.695   4.614  0.1654  0.2762 -0.8343
13996SOL     OW43407   4.307   3.058   7.192  0.5072  0.2679  0.1659
13996SOL    HW143408   4.277   3.088   7.277 -0.8661 -0.1516 -0.1410
13996SOL    HW243409   4.299   3.135   7.135  1.2843  0.5069  0.3584
13997SOL     OW43410   3.842   5.958   0.316 -0.4304 -0.2221  0.6401
13997SOL    HW143411   3.765   5.978   0.263 -0.8847  0.0018  1.3668
13997SOL    HW243412   3.890   6.041   0.320  0.1694 -0.5086 -0.3045
13998SOL     OW43413   5.483   3.533   7.777  0.2267  0.6871 -0.7434
13998SOL    HW143414   5.476   3.495   7.689 -0.3318  0.4979 -0.6190
13998SOL    HW243415   5.531   3.468   7.827  1.0725  1.0514 -1.0500
13999SOL     OW43416   0.798   8.045   4.171 -0.2558 -0.3240  0.3607
13999SOL    HW143417   0.719   8.008   4.131  0.3541 -0.2901 -0.9355
13999SOL    HW243418   0.773   8.133   4.198 -1.0007 -0.7556  1.1091
14000SOL     OW43419   0.529   7.811   0.098 -0.4086  0.6411 -0.1921
14000SOL    HW143420   0.499   7.737   0.150 -0.9305  0.0205 -1.3307
14000SOL    HW243421   0.583   7.772   0.030 -2.2826  1.0278 -2.0191
14001SOL     OW43422   3.260   5.784   0.568  0.6342 -0.3874 -0.5263
14001SOL    HW143423   3.174   5.784   0.610  0.2560 -0.9823 -1.2691
14001SOL    HW243424   3.323   5.774   0.640  0.1260  0.6315  0.0829
14002SOL     OW43425   5.642   6.006   3.958  0.1274 -0.0167  0.1562
14002SOL    HW143426   5.602   6.010   4.045  2.1190 -0.4666  1.1578
14002SOL    HW243427   5.682   6.092   3.945 -1.3130  0.5299 -0.9549
14003SOL     OW43428   0.195   5.408   7.036 -0.3967 -0.0349 -0.4076
14003SOL    HW143429   0.246   5.360   7.102 -1.3860  2.3606  2.3139
14003SOL    HW243430   0.259   5.431   6.968  1.3159 -0.3136  1.0385
14004SOL     OW43431   6.249   2.167   4.603 -0.1575 -0.1053  0.1240
14004SOL    HW143432   6.287   2.122   4.678 -1.5803 -0.5801  0.5864
14004SOL    HW243433   6.179   2.108   4.572 -0.2083  0.5079 -0.9978
14005SOL     OW43434   5.638   6.248   4.156 -0.1704  0.0624  0.3144
14005SOL    HW143435   5.544   6.246   4.175 -0.6338  0.5102 -1.6830
14005SOL    HW243436   5.657   6.340   4.138  0.3228 -0.2323 -0.7115
14006SOL     OW43437   6.546   6.058   3.943  0.1775 -0.3981 -0.0644
14006SOL    HW143438   6.476   6.078   4.006 -0.0779  1.0719 -0.7843
14006SOL    HW243439   6.521   6.106   3.864  0.2534 -2.5511 -1.4786
14007SOL     OW43440   7.350   4.284   5.002 -0.2370 -0.2538  0.2467
14007SOL    HW143441   7.408   4.222   5.046 -0.8386 -1.1237 -0.1476
14007SOL    HW243442   7.288   4.311   5.070 -0.6494 -0.9440  0.1498
14008SOL     OW43443   5.427   3.863   7.527 -0.0269  0.1393  0.1260
14008SOL    HW143444   5.476   3.936   7.489 -0.6297  0.9180  0.8175
14008SOL    HW243445   5.470   3.846   7.610  0.3859 -0.6043 -0.2307
14009SOL     OW43446   0.998   3.507   5.146  0.2381  0.3010 -0.3663
14009SOL    HW143447   0.965   3.422   5.118  2.5609 -0.8661  0.1816
14009SOL    HW243448   0.943   3.531   5.221 -0.9876 -0.2811 -1.0517
14010SOL     OW43449   6.482   0.059   5.195 -0.7897  0.4045 -0.2714
14010SOL    HW143450   6.441   0.128   5.247  1.1154  2.1906 -1.0235
14010SOL    HW243451   6.446   0.070   5.107 -1.7910 -0.7332 -0.0326
14011SOL     OW43452   5.902   5.940   4.458  0.7080 -0.1283 -0.0879
14011SOL    HW143453   5.849   6.019   4.443 -1.2035 -1.4262 -0.5148
14011SOL    HW243454   5.986   5.973   4.489  0.6261  2.1599 -2.0469
14012SOL     OW43455   6.897   2.976   0.617  0.3349  0.0982  0.2331
14012SOL    HW143456   6.850   3.059   0.608  0.4042  0.0755 -0.3762
14012SOL    HW243457   6.977   3.000   0.665  0.8706  0.5992 -0.8555
14013SOL     OW43458   5.431   2.546   0.621 -0.7021  0.0347  0.0585
14013SOL    HW143459   5.354   2.554   0.678 -1.3529 -1.4002 -0.5700
14013SOL    HW243460   5.415   2.466   0.570  0.6692  0.3454 -0.9136
14014SOL     OW43461   2.051   2.657   5.679  0.1478 -0.1265 -0.2303
14014SOL    HW143462   2.051   2.655   5.583  0.0914 -0.5957 -0.2218
14014SOL    HW243463   2.114   2.589   5.705  1.6395  1.2948  0.0486
14015SOL     OW43464   0.056   3.202   1.927  1.1867 -0.5006 -0.0082
14015SOL    HW143465  -0.027   3.165   1.956  0.9491 -0.8641 -1.0953
14015SOL    HW243466   0.048   3.296   1.944 -0.0083 -0.3306 -1.3348
14016SOL     OW43467   2.404   6.211   2.279 -0.6596  0.4261  0.1677
14016SOL    HW143468   2.335   6.275   2.260 -1.2449 -0.2235  0.0386
14016SOL    HW243469   2.377   6.133   2.231 -0.1517 -0.0376  0.6242
14017SOL     OW43470   5.605   6.754   5.188 -0.0661 -0.1474  0.5255
14017SOL    HW143471   5.585   6.690   5.257 -1.3018 -0.2329  0.1139
14017SOL    HW243472   5.554   6.831   5.211 -0.6325 -0.2398 -0.3872
14018SOL     OW43473   7.550   6.522   2.957 -0.4926  0.0254  0.1743
14018SOL    HW143474   7.625   6.562   2.914 -0.0047  0.9723  1.7896
14018SOL    HW243475   7.588   6.472   3.030 -1.0783 -3.5138 -1.7331
14019SOL     OW43476   1.024   7.862   2.168  0.3125 -0.9555 -0.0448
14019SOL    HW143477   1.049   7.939   2.220  2.9292 -1.5120 -0.3324
14019SOL    HW243478   0.978   7.899   2.092 -0.3675  0.1262  0.8502
14020SOL     OW43479   5.800   0.859   5.288  0.3996 -0.0466 -0.3191
14020SOL    HW143480   5.812   0.917   5.213  2.2224  0.9429  0.6778
14020SOL    HW243481   5.878   0.872   5.342 -0.8325 -0.7265  1.7578
14021SOL     OW43482   1.209   4.898   6.284 -0.0473 -0.4869  0.5324
14021SOL    HW143483   1.220   4.872   6.375 -1.3517  0.2939  0.9379
14021SOL    HW243484   1.114   4.901   6.271  0.1124  0.1372 -0.6397
14022SOL     OW43485   1.935   5.181   2.943 -0.2592 -0.3528 -0.1952
14022SOL    HW143486   1.966   5.091   2.956 -1.1664 -0.3871  2.5885
14022SOL    HW243487   1.995   5.234   2.995 -0.8217  0.4015 -0.3002
14023SOL     OW43488   2.187   2.339   3.006  0.1512 -0.1656 -0.4333
14023SOL    HW143489   2.210   2.288   2.929  0.1344 -0.0921 -0.4866
14023SOL    HW243490   2.255   2.317   3.071 -0.2191 -0.7524 -0.2384
14024SOL     OW43491   6.795   4.092   2.078 -0.6947  0.0451  0.0349
14024SOL    HW143492   6.883   4.128   2.075  0.6684 -3.0221 -0.1240
14024SOL    HW243493   6.788   4.051   2.164 -1.3095 -1.1472 -0.5460
14025SOL     OW43494   5.174   6.413   5.315 -0.0981  0.0141 -0.3084
14025SOL    HW143495   5.127   6.372   5.243  2.2915 -1.9151 -0.8971
14025SOL    HW243496   5.243   6.464   5.273  0.4547  0.0195  0.5729
14026SOL     OW43497   4.767   5.946   6.979 -1.2049 -0.0824  0.3667
14026SOL    HW143498   4.686   5.991   7.003 -0.0578  3.1929 -1.2906
14026SOL    HW243499   4.811   5.930   7.063 -1.7355  1.8571  1.0665
14027SOL     OW43500   1.556   3.463   8.050  0.2620  0.3917  0.0093
14027SOL    HW143501   1.500   3.501   8.118 -0.0321  0.7262 -0.4087
14027SOL    HW243502   1.506   3.388   8.018 -0.3948  1.2168 -0.9918
14028SOL     OW43503   2.630   5.890   2.816 -0.2436 -0.0466 -0.2253
14028SOL    HW143504   2.629   5.878   2.721 -1.7465 -0.4636 -0.1732
14028SOL    HW243505   2.682   5.970   2.829  2.0256 -1.2584 -1.2036
14029SOL     OW43506   6.923   3.956   7.356 -0.2380  0.1541  0.2914
14029SOL    HW143507   6.877   4.035   7.382 -1.2499  0.4501 -2.1727
14029SOL    HW243508   6.859   3.905   7.308  1.0530 -1.0905 -0.1895
14030SOL     OW43509   2.361   6.219   7.922 -0.4700  0.2353 -0.1279
14030SOL    HW143510   2.424   6.151   7.901 -0.4665  0.5966 -1.3758
14030SOL    HW243511   2.282   6.172   7.947 -0.2909 -0.2177 -0.4147
14031SOL     OW43512   4.384   7.976   3.281 -0.2242  0.0514  0.4980
14031SOL    HW143513   4.348   8.048   3.332  0.2462 -0.0339  0.9517
14031SOL    HW243514   4.323   7.966   3.207 -0.8829  0.1969  1.0152
14032SOL     OW43515   3.416   5.196   7.656  0.1393  0.2669  0.2806
14032SOL    HW143516   3.335   5.200   7.706 -0.3398  2.9426 -0.5257
14032SOL    HW243517   3.484   5.223   7.717 -0.0819  1.1651  0.1395
14033SOL     OW43518   3.189   2.615   0.030  0.1448 -0.1490  0.1260
14033SOL    HW143519   3.230   2.595  -0.054 -1.1264  0.4328 -0.6500
14033SOL    HW243520   3.192   2.532   0.078 -0.7619 -0.9844 -1.1974
14034SOL     OW43521   4.261   2.033   5.268 -0.2579 -0.4163 -0.2518
14034SOL    HW143522   4.335   2.078   5.227 -1.4768  2.4667  0.4796
14034SOL    HW243523   4.300   1.979   5.337  1.1347  1.4779  0.4985
14035SOL     OW43524   2.439   4.611   1.995  0.2535  0.6920 -0.0316
14035SOL    HW143525   2.345   4.604   1.980  0.1054  0.7285  0.7996
14035SOL    HW243526   2.476   4.533   1.955 -0.0325  1.0709 -1.0603
14036SOL     OW43527   8.008   3.303   5.862  0.8443  0.1562 -0.0402
14036SOL    HW143528   8.093   3.298   5.820  0.7904 -1.5391 -0.0069
14036SOL    HW243529   7.982   3.212   5.876 -0.1653  0.6458  1.5831
14037SOL     OW43530   7.465   4.773   3.962 -0.6782 -0.3475  0.2285
14037SOL    HW143531   7.517   4.719   3.902 -0.2196 -0.0574  0.3635
14037SOL    HW243532   7.382   4.725   3.971  0.0433 -1.5037  1.0341
14038SOL     OW43533   5.524   1.387   1.139 -0.1085 -0.1021 -0.4746
14038SOL    HW143534   5.516   1.417   1.049  0.0761 -2.9510 -1.5470
14038SOL    HW243535   5.437   1.401   1.177  0.6160  4.2256  0.1337
14039SOL     OW43536   5.698   1.235   5.280 -0.2523  0.5356 -0.5094
14039SOL    HW143537   5.622   1.196   5.236 -0.6733  1.5710 -0.7134
14039SOL    HW243538   5.726   1.168   5.343 -0.1393 -0.6461 -1.7706
14040SOL     OW43539   6.033   7.300   2.282 -1.1445 -0.7555  0.0230
14040SOL    HW143540   5.952   7.266   2.245 -0.4292 -1.2152 -1.1940
14040SOL    HW243541   6.092   7.308   2.206  0.0620 -0.8050  0.9278
14041SOL     OW43542   7.383   3.541   2.129 -0.5245  0.0380 -0.1434
14041SOL    HW143543   7.343   3.470   2.180  0.4438 -1.6699 -1.6800
14041SOL    HW243544   7.418   3.498   2.051  1.6776  1.9241 -0.2880
14042SOL     OW43545   0.272   2.701   0.055  0.1667 -0.3118 -0.7571
14042SOL    HW143546   0.359   2.740   0.048 -0.1678  0.2688 -1.9863
14042SOL    HW243547   0.255   2.696   0.149  1.0861  0.5703 -0.5293
14043SOL     OW43548   4.573   0.288   3.399 -0.3455 -0.4357 -0.1402
14043SOL    HW143549   4.611   0.336   3.473 -0.9350  2.0264 -1.3318
14043SOL    HW243550   4.527   0.215   3.439  1.6121 -0.7766  1.6935
14044SOL     OW43551   2.901   2.135   0.725 -0.6154 -0.5967 -1.0203
14044SOL    HW143552   2.900   2.063   0.661 -0.0666 -0.8818 -0.7155
14044SOL    HW243553   2.989   2.173   0.717 -0.0235 -1.5496  0.5610
14045SOL     OW43554   6.658   7.787   3.081  0.1524 -0.3026 -0.3160
14045SOL    HW143555   6.626   7.704   3.046 -0.4631 -0.3422  0.3271
14045SOL    HW243556   6.626   7.789   3.171 -0.7672  1.1078 -0.6331
14046SOL     OW43557   2.022   1.624   0.151  0.3382  0.0261 -0.4805
14046SOL    HW143558   2.014   1.559   0.220  0.9655 -0.9238 -1.2785
14046SOL    HW243559   2.115   1.627   0.131 -0.0308 -1.4992 -2.8981
14047SOL     OW43560   2.273   0.404   1.968 -0.1563 -0.0678 -0.6144
14047SOL    HW143561   2.231   0.464   1.906 -0.4498  0.0900 -0.2596
14047SOL    HW243562   2.325   0.346   1.912 -0.0609  0.3593 -0.9795
14048SOL     OW43563   0.886   6.519   5.477 -0.4680 -0.6297  0.6275
14048SOL    HW143564   0.803   6.530   5.431 -0.9271 -0.1025  1.5559
14048SOL    HW243565   0.908   6.426   5.467 -0.9068 -0.6584 -0.0588
14049SOL     OW43566   5.825   1.507   2.085 -0.7280  0.6019 -0.3264
14049SOL    HW143567   5.833   1.601   2.102  1.1778  0.6487 -1.1903
14049SOL    HW243568   5.908   1.470   2.116 -1.8451 -0.9682  0.9159
14050SOL     OW43569   0.062   1.946   5.527  0.0000  0.3619  0.0258
14050SOL    HW143570   0.051   2.021   5.469  0.6477 -0.5639 -1.3553
14050SOL    HW243571   0.103   1.982   5.606 -1.7203  1.8032  0.3242
14051SOL     OW43572   6.204   1.583   4.640  0.3913 -0.4192  0.6175
14051SOL    HW143573   6.131   1.528   4.614  0.2983 -0.8987  1.8210
14051SOL    HW243574   6.166   1.651   4.695  0.8027 -0.5167  1.0364
14052SOL     OW43575   6.437   5.348   1.600  0.3581  0.2523  0.0836
14052SOL    HW143576   6.462   5.282   1.535  0.5611  0.7677 -0.3702
14052SOL    HW243577   6.362   5.309   1.645  0.2931 -0.1659 -0.3734
14053SOL     OW43578   0.217   3.814   5.356  0.0479 -0.3972 -0.2103
14053SOL    HW143579   0.288   3.797   5.293  0.4902 -0.7112  0.3672
14053SOL    HW243580   0.158   3.874   5.309  0.1990 -0.8775 -1.0438
14054SOL     OW43581   3.166   5.936   4.029  0.1095 -0.1229  0.0908
14054SOL    HW143582   3.139   5.908   3.942  0.7014 -2.0055  0.4601
14054SOL    HW243583   3.258   5.909   4.036  0.1823  0.3232  1.1666
14055SOL     OW43584   5.242   2.048   2.679 -0.0563  0.1011 -0.1773
14055SOL    HW143585   5.187   2.056   2.757 -0.8380  0.6477 -0.7619
14055SOL    HW243586   5.242   1.955   2.659 -1.3478  0.1540 -0.5458
14056SOL     OW43587   6.566   1.044   2.623  0.5141 -0.2164  0.2238
14056SOL    HW143588   6.545   1.045   2.717  1.6744 -0.9080  0.5106
14056SOL    HW243589   6.618   0.964   2.611  0.5853 -0.0074 -0.9653
14057SOL     OW43590   5.998   3.262   5.037 -0.4244  0.5211 -0.3500
14057SOL    HW143591   6.046   3.331   5.084 -0.7048 -0.3792  1.3035
14057SOL    HW243592   5.963   3.205   5.105 -0.7817 -0.9006 -1.6582
14058SOL     OW43593   6.755   2.649   4.844  0.6228  0.0688  0.4486
14058SOL    HW143594   6.740   2.729   4.895  0.9368  1.4647 -1.5591
14058SOL    HW243595   6.726   2.670   4.756  1.2511 -1.8684 -0.2863
14059SOL     OW43596   0.742   4.922   4.705 -0.4293 -0.5889  0.2213
14059SOL    HW143597   0.750   4.967   4.789 -0.5849  0.2853 -0.2111
14059SOL    HW243598   0.821   4.949   4.657  0.1326 -1.8334  0.4193
14060SOL     OW43599   2.783   1.243   2.526  0.0724 -0.3246  0.0145
14060SOL    HW143600   2.832   1.325   2.522  0.7614 -0.7415 -0.1253
14060SOL    HW243601   2.815   1.200   2.604 -0.3101 -0.4589  0.1011
14061SOL     OW43602   8.012   2.952   5.447  0.1667  0.0501  0.5086
14061SOL    HW143603   8.001   2.919   5.536  0.1584 -0.1929  0.4177
14061SOL    HW243604   7.984   2.880   5.391  2.6977 -0.8057  0.2321
14062SOL     OW43605   2.774   0.299   5.840 -0.5172  0.4749 -0.3451
14062SOL    HW143606   2.741   0.306   5.929 -0.2910  0.6094 -0.2693
14062SOL    HW243607   2.868   0.317   5.848 -0.7482  2.0241 -0.8237
14063SOL     OW43608   2.922   7.753   6.209  0.3651  0.3957 -0.3706
14063SOL    HW143609   3.007   7.740   6.251 -0.4330  0.4165  1.3228
14063SOL    HW243610   2.943   7.774   6.118  2.2365  1.7375  0.3224
14064SOL     OW43611   4.345   5.879   3.979 -0.1907 -1.1734 -0.1253
14064SOL    HW143612   4.257   5.844   3.964 -0.5614 -1.0791  1.6671
14064SOL    HW243613   4.382   5.886   3.891 -2.1501 -0.7122 -0.9805
14065SOL     OW43614   7.559   2.552   3.801 -0.8240 -0.0025 -0.0471
14065SOL    HW143615   7.493   2.542   3.870 -1.9696  0.7527 -0.9784
14065SOL    HW243616   7.638   2.513   3.837 -1.5922 -0.3034  1.3934
14066SOL     OW43617   5.217   2.612   3.583  0.2543  0.1858 -0.0440
14066SOL    HW143618   5.278   2.674   3.543  0.4661  0.0195  0.0166
14066SOL    HW243619   5.197   2.550   3.513 -1.8384  1.6602 -0.8452
14067SOL     OW43620   0.220   1.697   1.572 -0.4222  0.2727 -0.6766
14067SOL    HW143621   0.312   1.669   1.570 -0.1416  0.9991  0.8145
14067SOL    HW243622   0.178   1.644   1.505  0.8220 -1.0355 -0.4762
14068SOL     OW43623   0.609   6.909   2.789 -0.8900  0.1860  0.0099
14068SOL    HW143624   0.591   6.881   2.699 -0.8980  2.7539 -0.8655
14068SOL    HW243625   0.523   6.918   2.829 -0.9162 -0.2372  0.0585
14069SOL     OW43626   1.340   0.772   5.654 -0.3631 -0.3842 -0.4054
14069SOL    HW143627   1.312   0.751   5.743  0.1328 -0.2738 -0.2223
14069SOL    HW243628   1.345   0.687   5.610 -2.6433 -0.3005 -0.9594
14070SOL     OW43629   0.636   2.455   1.290  0.1659 -0.1113  0.3630
14070SOL    HW143630   0.634   2.360   1.298 -0.9371 -0.2138 -0.7495
14070SOL    HW243631   0.554   2.477   1.246  0.6768  1.3043  0.0581
14071SOL     OW43632   4.827   7.255   0.853 -1.1229  0.2322 -0.3126
14071SOL    HW143633   4.782   7.209   0.924 -0.0020  0.4218  0.5538
14071SOL    HW243634   4.766   7.323   0.825 -2.0696 -0.6234 -0.3859
14072SOL     OW43635   4.135   3.054   5.774 -0.0784 -0.0370  0.1310
14072SOL    HW143636   4.138   3.090   5.685  0.6239  2.1905  1.0033
14072SOL    HW243637   4.150   3.129   5.831 -1.5407 -1.2415  2.2097
14073SOL     OW43638   5.476   2.924   6.844 -0.0196 -0.1346 -0.3172
14073SOL    HW143639   5.484   3.008   6.889 -0.9120 -1.2705  2.1144
14073SOL    HW243640   5.382   2.905   6.845  0.2311 -1.4713 -0.2352
14074SOL     OW43641   3.821   2.618   3.832  0.0844  0.3022  0.1623
14074SOL    HW143642   3.859   2.696   3.874 -0.6154 -0.6612  2.7595
14074SOL    HW243643   3.728   2.623   3.854 -0.1654 -0.7088 -0.6226
14075SOL     OW43644   3.514   3.148   3.681  0.2836  0.3532 -0.1977
14075SOL    HW143645   3.466   3.080   3.634 -0.0583  1.3725 -1.4218
14075SOL    HW243646   3.537   3.211   3.612  3.5238 -0.1372  0.2955
14076SOL     OW43647   0.288   6.172   0.018 -0.5491 -0.9478 -0.1624
14076SOL    HW143648   0.285   6.131   0.104 -0.0490  0.5024  0.5945
14076SOL    HW243649   0.367   6.137  -0.023 -0.5770 -1.3592  0.1348
14077SOL     OW43650   4.073   0.222   5.444  0.3305  0.3276 -0.8392
14077SOL    HW143651   4.050   0.217   5.537  0.1969 -0.6418 -0.9157
14077SOL    HW243652   4.095   0.314   5.430  3.1865  0.0239  0.8127
14078SOL     OW43653   2.680   7.633   1.548  0.1345  0.5453 -0.4293
14078SOL    HW143654   2.694   7.693   1.621 -0.0867 -0.7768  0.7599
14078SOL    HW243655   2.681   7.688   1.470  2.1583  1.7834  0.4058
14079SOL     OW43656   6.091   7.849   2.374  0.3165 -0.3397  0.6876
14079SOL    HW143657   6.150   7.775   2.368  1.3914  0.6019 -1.3700
14079SOL    HW243658   6.149   7.925   2.382 -0.6937  0.4561  0.6484
14080SOL     OW43659   1.404   5.607   2.086 -0.3834 -0.6281  0.0979
14080SOL    HW143660   1.479   5.571   2.133 -0.8189  0.6846  1.8771
14080SOL    HW243661   1.441   5.673   2.028 -0.0240 -1.0039 -0.1066
14081SOL     OW43662   6.779   5.442   7.588 -0.3386 -0.1522 -0.1877
14081SOL    HW143663   6.813   5.388   7.517 -0.1690 -0.3238  0.0225
14081SOL    HW243664   6.754   5.379   7.656  3.4257  0.0702  1.7072
14082SOL     OW43665   7.817   2.398   1.645 -0.6184  0.3715  0.1198
14082SOL    HW143666   7.885   2.378   1.581 -1.8324 -1.1802 -0.7661
14082SOL    HW243667   7.796   2.313   1.684 -2.3912  0.7177 -0.0167
14083SOL     OW43668   4.103   0.492   5.388  0.2563  0.1012 -0.1970
14083SOL    HW143669   4.098   0.537   5.472 -0.8503 -0.2106 -0.0843
14083SOL    HW243670   4.194   0.502   5.361  0.5962  0.3045  0.9757
14084SOL     OW43671   6.334   6.289   1.663 -0.5323 -0.0323 -0.0134
14084SOL    HW143672   6.245   6.319   1.649 -0.6489 -0.8225 -1.1314
14084SOL    HW243673   6.364   6.337   1.740 -1.4939  1.1361 -0.3409
14085SOL     OW43674   6.785   0.393   1.453 -0.0443 -0.6270  0.2202
14085SOL    HW143675   6.868   0.357   1.484  0.0300  1.1548  2.3277
14085SOL    HW243676   6.810   0.451   1.380  0.7468  0.6427  1.4517
14086SOL     OW43677   4.816   0.755   2.784  0.6744  0.3934 -0.4304
14086SOL    HW143678   4.738   0.782   2.832  0.5339  0.9519 -0.9615
14086SOL    HW243679   4.788   0.679   2.733  1.1539 -1.0549  1.3188
14087SOL     OW43680   7.765   2.987   4.968  0.4223  0.3451 -0.4082
14087SOL    HW143681   7.843   2.936   4.988  0.7143  1.5167  1.7406
14087SOL    HW243682   7.699   2.922   4.947  0.9045 -0.9640  1.7768
14088SOL     OW43683   0.076   6.281   7.165  1.0933 -0.2160  0.2798
14088SOL    HW143684   0.127   6.266   7.085 -0.3580  0.0798 -0.7367
14088SOL    HW243685   0.028   6.199   7.179 -0.6736  0.5909 -0.7001
14089SOL     OW43686   1.186   7.586   4.148  0.3476  0.7986  0.0581
14089SOL    HW143687   1.142   7.636   4.217  0.0931 -1.3463  1.5721
14089SOL    HW243688   1.269   7.558   4.188  1.0062  0.9721 -1.1499
14090SOL     OW43689   1.675   7.461   6.151 -0.1170  0.0464  0.9351
14090SOL    HW143690   1.680   7.546   6.192 -0.4731 -0.2707  1.6405
14090SOL    HW243691   1.754   7.456   6.097 -0.2222  0.9118  0.6945
14091SOL     OW43692   6.009   0.734   5.020  0.0539  0.2229 -0.3814
14091SOL    HW143693   5.995   0.828   5.034  0.5733  0.1927  0.4644
14091SOL    HW243694   6.053   0.728   4.936 -1.6476  0.5863 -1.3282
14092SOL     OW43695   6.682   6.300   1.848  0.0889  0.2781  0.1909
14092SOL    HW143696   6.630   6.290   1.768  0.1833 -0.3055  0.2017
14092SOL    HW243697   6.742   6.372   1.829 -0.0923  0.3375 -0.1553
14093SOL     OW43698   5.765   0.089   0.391  0.4641  0.0472  0.0151
14093SOL    HW143699   5.803   0.154   0.333 -0.6625  0.2482 -0.5146
14093SOL    HW243700   5.839   0.031   0.414  1.2153  0.8015 -0.4478
14094SOL     OW43701   3.749   5.102   3.270 -0.3204 -0.1850  0.1991
14094SOL    HW143702   3.820   5.167   3.271 -0.4043 -0.0955  0.8572
14094SOL    HW243703   3.788   5.024   3.310 -0.4884 -0.2459  0.2421
14095SOL     OW43704   2.296   1.946   2.884 -0.1543 -0.0958  0.1386
14095SOL    HW143705   2.379   1.901   2.872  0.4889  0.8855  0.7953
14095SOL    HW243706   2.315   2.038   2.868 -1.2775  0.0654 -0.3905
14096SOL     OW43707   2.830   4.496   0.186  0.0535  0.4950 -0.2227
14096SOL    HW143708   2.855   4.404   0.191  0.2534  0.6005  2.7967
14096SOL    HW243709   2.843   4.520   0.094  2.1976 -1.8831 -0.6459
14097SOL     OW43710   2.770   3.967   0.665 -0.0717  0.3447  0.0794
14097SOL    HW143711   2.855   3.964   0.621 -0.0597  0.9437  0.0589
14097SOL    HW243712   2.789   3.940   0.755 -0.2455 -1.7934 -0.4671
14098SOL     OW43713   1.729   1.087   0.839  0.1076 -0.2286 -0.2919
14098SOL    HW143714   1.715   1.117   0.749 -0.0326  1.7372  0.3398
14098SOL    HW243715   1.708   1.163   0.893 -0.6925 -1.6229  1.4783
14099SOL     OW43716   6.473   4.655   6.523  0.4421 -0.0642  0.0927
14099SOL    HW143717   6.519   4.575   6.497 -1.6183 -0.7087 -1.9495
14099SOL    HW243718   6.489   4.716   6.451 -1.2132 -0.0688 -0.3185
14100SOL     OW43719   6.074   6.146   4.737  0.5781  0.3204  0.2708
14100SOL    HW143720   6.092   6.152   4.830 -0.9496 -0.8293  0.6873
14100SOL    HW243721   5.982   6.170   4.729 -0.3387 -2.8907 -0.3971
14101SOL     OW43722   7.466   7.143   3.132 -0.3040 -0.2595 -0.4757
14101SOL    HW143723   7.525   7.071   3.152  1.4676  1.1828 -0.2732
14101SOL    HW243724   7.420   7.160   3.214  1.6365  0.8873  0.4426
14102SOL     OW43725   3.848   0.705   4.252 -0.2833 -0.4862 -0.4825
14102SOL    HW143726   3.845   0.688   4.347 -1.3206 -1.7122 -0.7175
14102SOL    HW243727   3.775   0.655   4.216 -0.4621  0.6974 -1.8399
14103SOL     OW43728   5.126   5.326   2.762  0.5671  0.1919 -0.9150
14103SOL    HW143729   5.147   5.416   2.739  1.1627  0.2196 -0.2876
14103SOL    HW243730   5.045   5.307   2.714  0.9745  0.7246 -1.8437
14104SOL     OW43731   1.119   7.682   5.804 -0.0419 -0.0144 -0.0361
14104SOL    HW143732   1.121   7.608   5.865  0.0434  0.2200  0.2506
14104SOL    HW243733   1.027   7.705   5.796 -0.0478 -0.0080  0.0517
14105SOL     OW43734   7.979   1.201   1.727 -0.3058 -0.0182 -0.7723
14105SOL    HW143735   8.008   1.183   1.638  3.0845  1.5021 -0.1535
14105SOL    HW243736   7.986   1.116   1.772 -3.2813 -1.0915 -2.0927
14106SOL     OW43737   2.146   5.080   3.222 -0.5199  0.1446 -0.0315
14106SOL    HW143738   2.060   5.057   3.187 -0.4720 -0.3107  0.1415
14106SOL    HW243739   2.185   4.996   3.247  0.8044  0.1128 -1.9752
14107SOL     OW43740   6.230   3.423   7.562 -0.1596 -0.2720  0.1670
14107SOL    HW143741   6.279   3.474   7.627 -0.1701 -0.8805  0.6622
14107SOL    HW243742   6.153   3.391   7.611 -0.3789 -0.3958 -0.2561
14108SOL     OW43743   5.529   5.396   0.193 -0.0109 -1.0050  0.0961
14108SOL    HW143744   5.624   5.405   0.203 -0.0093  0.1405 -0.6816
14108SOL    HW243745   5.519   5.339   0.117  0.0752 -0.3264 -0.4336
14109SOL     OW43746   5.833   2.967   0.630  0.1539 -0.2828 -0.0321
14109SOL    HW143747   5.825   2.871   0.627  2.0926 -0.5794  1.6749
14109SOL    HW243748   5.854   2.986   0.722  0.8375  1.6701 -0.5528
14110SOL     OW43749   2.271   0.060   0.972  0.0400  0.2423 -0.1210
14110SOL    HW143750   2.346   0.042   1.028  0.9962  1.7299 -0.8705
14110SOL    HW243751   2.299   0.035   0.885  0.0746  1.8007 -0.5781
14111SOL     OW43752   0.177   3.064   2.651  0.3140 -0.5111  0.3715
14111SOL    HW143753   0.141   3.153   2.658  0.9225 -0.2173 -0.2103
14111SOL    HW243754   0.252   3.064   2.711  1.0037 -0.2773 -0.4785
14112SOL     OW43755   0.028   6.356   6.256  0.3351  0.3524  0.5907
14112SOL    HW143756   0.046   6.290   6.189  0.8278  1.4857 -0.4330
14112SOL    HW243757   0.010   6.306   6.335  0.4666 -1.0075 -0.2163
14113SOL     OW43758   3.263   3.836   1.390  0.3902  0.0124  0.1112
14113SOL    HW143759   3.224   3.813   1.305  0.1477 -1.8043  0.6841
14113SOL    HW243760   3.350   3.796   1.388  0.2107 -0.4157  0.8948
14114SOL     OW43761   5.940   8.051   6.599 -0.2237  0.5989  0.5815
14114SOL    HW143762   5.914   8.087   6.514  2.4990 -0.2477 -0.7286
14114SOL    HW243763   5.889   7.971   6.609  0.3266  0.0317 -0.9119
14115SOL     OW43764   0.270   6.831   7.919  0.8352  0.2376 -0.0028
14115SOL    HW143765   0.338   6.787   7.969  0.9478  0.5269  0.0967
14115SOL    HW243766   0.193   6.830   7.976  0.6038 -0.5344 -0.3060
14116SOL     OW43767   4.450   2.399   4.874  0.0517  0.2011  0.0632
14116SOL    HW143768   4.423   2.491   4.875  0.6318  0.3755  0.8251
14116SOL    HW243769   4.546   2.403   4.875  0.0851 -0.4105  1.4687
14117SOL     OW43770   5.432   3.229   6.645 -0.1289  0.3539  0.3969
14117SOL    HW143771   5.428   3.221   6.740 -0.5593  1.2527  0.4685
14117SOL    HW243772   5.449   3.322   6.629  0.8276  0.0606 -0.3942
14118SOL     OW43773   3.090   8.021   2.790 -0.4462 -0.0495  0.7439
14118SOL    HW143774   3.128   8.006   2.703  0.2659 -1.1257  1.2281
14118SOL    HW243775   3.084   8.116   2.797  0.8913  0.1029  0.1039
14119SOL     OW43776   1.974   2.145   3.731  0.8332  0.5527 -0.1420
14119SOL    HW143777   1.993   2.078   3.665 -0.7479  1.5720 -1.7299
14119SOL    HW243778   1.879   2.160   3.723  0.5412  0.6082  2.5220
14120SOL     OW43779   6.976   6.437   0.956 -0.4826  0.0238  0.1203
14120SOL    HW143780   6.950   6.422   1.047  0.3310  2.1766  0.7773
14120SOL    HW243781   7.072   6.439   0.958 -0.3561 -1.8753 -1.1924
14121SOL     OW43782   6.011   0.435   7.636  0.3612 -0.2078  0.3948
14121SOL    HW143783   6.077   0.366   7.628 -0.7875 -1.4294  1.0529
14121SOL    HW243784   6.036   0.500   7.571  1.8137 -0.9637  0.1592
14122SOL     OW43785   4.830   4.427   0.532  0.0038 -0.5170 -0.5480
14122SOL    HW143786   4.890   4.427   0.457 -1.9637  1.1401 -2.2300
14122SOL    HW243787   4.760   4.368   0.507 -0.1075 -0.8614  0.5218
14123SOL     OW43788   7.613   5.404   3.866  0.0624 -0.4924 -0.0583
14123SOL    HW143789   7.686   5.371   3.814 -0.0102  2.3273 -2.1828
14123SOL    HW243790   7.598   5.492   3.833 -2.1786  0.2597  2.6086
14124SOL     OW43791   0.822   1.961   1.566 -0.2448  0.4355 -0.2849
14124SOL    HW143792   0.757   2.029   1.544 -1.3293 -0.2007  0.8583
14124SOL    HW243793   0.853   1.985   1.653  1.4864  1.0193 -1.0178
14125SOL     OW43794   2.076   6.407   0.404 -0.1335  0.2443 -0.1249
14125SOL    HW143795   2.009   6.430   0.469 -1.2084  1.1342 -1.4922
14125SOL    HW243796   2.122   6.489   0.387 -1.0841  0.4711 -1.8007
14126SOL     OW43797   7.486   2.595   5.302  0.1572 -0.1605  0.3552
14126SOL    HW143798   7.515   2.546   5.225  0.6098  0.3211  0.2170
14126SOL    HW243799   7.528   2.551   5.376  1.4584  0.6793  0.1391
14127SOL     OW43800   4.110   4.913   3.372 -0.0316 -0.3058 -0.4943
14127SOL    HW143801   4.138   4.996   3.410 -0.5586 -0.2920 -0.1333
14127SOL    HW243802   4.185   4.885   3.319  0.6772 -0.2653  0.4517
14128SOL     OW43803   0.172   8.012   0.888 -0.3142 -0.4123  0.2678
14128SOL    HW143804   0.085   8.049   0.871  0.4706  1.2199 -0.4041
14128SOL    HW243805   0.161   7.918   0.873 -1.4026  0.0515 -2.3851
14129SOL     OW43806   2.711   1.659   7.351 -0.2867  0.9869 -0.5427
14129SOL    HW143807   2.627   1.654   7.306 -0.8345  0.6957  0.4776
14129SOL    HW243808   2.693   1.709   7.430  0.3431  0.3722  0.0074
14130SOL     OW43809   0.860   0.242   7.354  0.0418  0.2207  0.0340
14130SOL    HW143810   0.939   0.195   7.382 -1.2965 -1.3820  1.3567
14130SOL    HW243811   0.836   0.199   7.272  0.2755  0.3952 -0.1281
14131SOL     OW43812   3.608   2.830   7.199  0.2505  0.4205 -0.0918
14131SOL    HW143813   3.576   2.837   7.109 -0.6226 -0.1802  0.1571
14131SOL    HW243814   3.703   2.830   7.191  0.1967 -0.7406 -1.1271
14132SOL     OW43815   0.531   2.321   7.868 -0.1132 -0.4560 -0.3368
14132SOL    HW143816   0.477   2.391   7.904  0.0141 -0.0649 -0.9030
14132SOL    HW243817   0.599   2.366   7.819  0.3158 -0.9644 -0.2195
14133SOL     OW43818   4.047   0.410   3.422 -0.0340 -0.2154 -0.6829
14133SOL    HW143819   4.022   0.338   3.480 -0.5867 -0.9934 -1.8370
14133SOL    HW243820   3.981   0.408   3.352  2.0755 -1.0629 -2.7784
14134SOL     OW43821   4.442   7.359   5.023  0.3570 -0.2159  0.5836
14134SOL    HW143822   4.377   7.381   5.089  0.2664  0.4917  0.2678
14134SOL    HW243823   4.392   7.319   4.952 -0.0819  2.2637 -0.5953
14135SOL     OW43824   4.662   0.803   4.532  0.6042  0.1550  0.0852
14135SOL    HW143825   4.730   0.752   4.575  1.1160  0.3171 -0.5329
14135SOL    HW243826   4.708   0.874   4.488 -0.0030  0.5305  0.0387
14136SOL     OW43827   3.829   4.449   0.979 -0.0917 -0.3768  0.8813
14136SOL    HW143828   3.904   4.392   1.002  0.1355 -0.5203 -0.1540
14136SOL    HW243829   3.868   4.521   0.930 -0.5273  0.0375  1.1435
14137SOL     OW43830   1.545   5.096   3.138  0.3363  0.0840 -0.2759
14137SOL    HW143831   1.462   5.127   3.175 -0.3748 -2.4367  0.4811
14137SOL    HW243832   1.558   5.150   3.060 -0.4990  2.4639  1.1568
14138SOL     OW43833   2.107   0.716   1.531 -0.1583  0.2829  0.7562
14138SOL    HW143834   2.033   0.693   1.587  0.2079 -0.1887  1.0556
14138SOL    HW243835   2.167   0.642   1.540  1.6973  1.8938  2.8349
14139SOL     OW43836   7.378   6.508   2.312  0.0979  0.1769 -0.5439
14139SOL    HW143837   7.445   6.442   2.331 -0.3495  0.5743  3.1637
14139SOL    HW243838   7.415   6.590   2.344 -2.2872  0.2672  2.5338
14140SOL     OW43839   2.224   2.606   6.396  0.0216 -0.2250  0.1286
14140SOL    HW143840   2.145   2.559   6.369  0.8543 -1.4660 -0.2384
14140SOL    HW243841   2.281   2.538   6.433  1.5729  0.3509 -1.1057
14141SOL     OW43842   2.638   7.756   2.563  0.8508  0.4165  0.6786
14141SOL    HW143843   2.685   7.839   2.553  0.2933  0.8337  1.4972
14141SOL    HW243844   2.629   7.743   2.657  0.0357 -0.0623  0.5501
14142SOL     OW43845   1.316   3.631   3.114  0.2052  0.0975 -0.2448
14142SOL    HW143846   1.244   3.686   3.144 -1.8709 -1.5643 -1.8251
14142SOL    HW243847   1.325   3.563   3.181 -0.1864 -0.0898 -0.3814
14143SOL     OW43848   1.995   0.809   3.996  0.2351  0.2830 -0.1502
14143SOL    HW143849   2.067   0.846   4.049  0.2355 -0.1856  0.1835
14143SOL    HW243850   1.916   0.828   4.047  0.0828  1.0320 -0.6441
14144SOL     OW43851   2.954   2.387   4.251 -0.4964  0.1371  0.4213
14144SOL    HW143852   2.980   2.308   4.298 -1.5829 -0.4054  0.1238
14144SOL    HW243853   3.006   2.386   4.171 -2.2107 -1.5810 -0.7517
14145SOL     OW43854   4.936   5.895   3.852  0.1325  0.2422 -0.0659
14145SOL    HW143855   5.004   5.956   3.880  1.0708 -0.7378 -0.1473
14145SOL    HW243856   4.976   5.809   3.861 -0.7432 -0.2987 -1.0996
14146SOL     OW43857   4.881   7.793   0.340 -0.2111  1.0362 -0.3221
14146SOL    HW143858   4.787   7.793   0.322 -0.1416 -0.4485 -0.7886
14146SOL    HW243859   4.922   7.803   0.254  0.0553 -0.9302 -0.4726
14147SOL     OW43860   0.678   0.531   7.610  0.3598 -0.5314 -0.4848
14147SOL    HW143861   0.747   0.598   7.613  0.8935 -1.0464 -0.9262
14147SOL    HW243862   0.667   0.513   7.517 -1.7293  0.8927 -0.5646
14148SOL     OW43863   3.564   3.280   2.617  0.3949 -0.3124  0.1117
14148SOL    HW143864   3.640   3.258   2.670  0.7076  1.4241  0.4395
14148SOL    HW243865   3.505   3.205   2.627  1.6155 -1.2224  0.6736
14149SOL     OW43866   0.337   1.607   3.557  0.5612 -0.0264 -0.5186
14149SOL    HW143867   0.284   1.585   3.480 -1.1341 -0.0897  0.5959
14149SOL    HW243868   0.365   1.522   3.591  0.6657 -0.0371 -0.6306
14150SOL     OW43869   5.179   1.631   7.181  0.1807 -0.5351  0.6286
14150SOL    HW143870   5.127   1.705   7.150 -1.8581 -1.9374  0.4989
14150SOL    HW243871   5.264   1.669   7.203 -0.8168  1.8484  0.6857
14151SOL     OW43872   2.667   7.256   3.518 -0.8225  0.6423 -0.2881
14151SOL    HW143873   2.592   7.299   3.559 -3.6195 -0.6804 -3.5637
14151SOL    HW243874   2.643   7.247   3.426  1.5981 -3.5801 -0.7754
14152SOL     OW43875   6.231   5.658   4.460 -0.0185  0.0430 -0.2118
14152SOL    HW143876   6.191   5.729   4.511  1.4907  1.0744 -0.4045
14152SOL    HW243877   6.187   5.663   4.375 -1.4158 -0.6569  0.4294
14153SOL     OW43878   0.330   7.857   6.194 -1.1607 -0.4686 -0.3256
14153SOL    HW143879   0.245   7.836   6.155 -1.4794  0.5110 -0.2035
14153SOL    HW243880   0.377   7.904   6.125 -1.5390  0.8419  0.2750
14154SOL     OW43881   3.972   6.731   2.944 -0.3654 -0.0855 -0.2837
14154SOL    HW143882   3.900   6.702   2.887  1.0313 -0.1903 -2.0839
14154SOL    HW243883   3.997   6.652   2.992 -0.7021 -0.3376 -0.5161
14155SOL     OW43884   5.168   4.048   0.123 -0.2340  0.1437  0.2276
14155SOL    HW143885   5.134   4.134   0.147  2.1971  0.9179  1.1707
14155SOL    HW243886   5.212   4.062   0.039  1.6227  0.2725  1.1776
14156SOL     OW43887   6.076   7.299   1.185  0.6468  0.0897  0.5982
14156SOL    HW143888   6.125   7.359   1.129 -0.6307  0.0550 -0.5902
14156SOL    HW243889   6.007   7.353   1.223 -0.2013 -0.4999 -0.0767
14157SOL     OW43890   4.764   2.141   2.468  0.1064 -0.1382 -0.1384
14157SOL    HW143891   4.685   2.092   2.492 -0.6020  0.2766 -1.5078
14157SOL    HW243892   4.830   2.074   2.450  0.6723 -0.4934  2.6660
14158SOL     OW43893   6.791   4.356   5.217 -0.3400 -0.0264  0.4657
14158SOL    HW143894   6.847   4.387   5.146  1.2201 -0.8577  1.2813
14158SOL    HW243895   6.814   4.412   5.291  1.0598 -1.7559  1.4039
14159SOL     OW43896   5.078   1.287   5.430  0.6329  0.0310  0.2066
14159SOL    HW143897   4.996   1.294   5.381  0.3832 -1.2273  0.4016
14159SOL    HW243898   5.063   1.335   5.510  0.1330 -0.0574  0.1680
14160SOL     OW43899   8.010   6.108   4.061  0.1039  0.5470 -0.0469
14160SOL    HW143900   8.081   6.172   4.073 -0.6146  1.3363  0.1072
14160SOL    HW243901   7.948   6.127   4.131 -1.6510  1.8029 -1.8258
14161SOL     OW43902   3.079   6.263   3.577  0.3304 -0.3331  0.4033
14161SOL    HW143903   3.084   6.359   3.583 -2.3876  0.0018 -0.9119
14161SOL    HW243904   3.164   6.236   3.544  0.6267  1.8315 -0.7951
14162SOL     OW43905   1.785   2.964   5.507 -0.0174  0.5517  0.1869
14162SOL    HW143906   1.873   3.000   5.497 -0.4317  1.6360  0.3029
14162SOL    HW243907   1.784   2.888   5.448  1.8820 -1.2440  2.2532
14163SOL     OW43908   7.495   0.152   0.863 -0.0645 -0.3109  0.3240
14163SOL    HW143909   7.482   0.175   0.955  0.9442  1.1794  0.1442
14163SOL    HW243910   7.528   0.062   0.865 -0.1559 -0.3347  1.4198
14164SOL     OW43911   7.551   7.571   0.592  0.1687  0.1608 -0.5861
14164SOL    HW143912   7.633   7.531   0.564 -0.8564 -0.4166 -2.9690
14164SOL    HW243913   7.547   7.654   0.545  0.5121  1.4208  1.4722
14165SOL     OW43914   1.844   4.084   7.548 -0.1094  0.3253 -0.2894
14165SOL    HW143915   1.805   3.997   7.559  0.6449  0.0795  0.5939
14165SOL    HW243916   1.785   4.143   7.595  0.3892  0.0012  0.7791
14166SOL     OW43917   6.192   1.362   3.953  0.4623  0.0314  0.0568
14166SOL    HW143918   6.243   1.431   3.995  0.5896  0.2220 -0.4134
14166SOL    HW243919   6.101   1.384   3.972  0.5303 -0.0288  0.4579
14167SOL     OW43920   3.807   7.144   3.088  0.3005  0.5071  0.5151
14167SOL    HW143921   3.722   7.100   3.088  0.1769  0.7438  0.6025
14167SOL    HW243922   3.823   7.168   3.179 -0.0744  1.4769  0.3382
14168SOL     OW43923   2.980   0.833   6.533 -0.4182  0.1649 -0.6727
14168SOL    HW143924   3.001   0.915   6.488 -1.3884 -1.2380 -3.9661
14168SOL    HW243925   2.885   0.830   6.535 -0.4075 -0.0928  1.1324
14169SOL     OW43926   2.847   7.336   0.888 -0.3455 -0.2831 -0.0118
14169SOL    HW143927   2.875   7.249   0.859  0.5439 -1.2168  3.2876
14169SOL    HW243928   2.929   7.382   0.906 -0.7698  1.6375 -2.4390
14170SOL     OW43929   4.923   2.293   7.014 -0.1271  0.3993  0.4849
14170SOL    HW143930   4.900   2.353   7.084  0.8291  1.9007 -0.4184
14170SOL    HW243931   5.016   2.310   6.997 -0.4358  0.4721 -1.4415
14171SOL     OW43932   6.367   4.585   6.783  0.2227 -0.1668  0.1986
14171SOL    HW143933   6.395   4.609   6.695 -0.6946  1.1213  0.2281
14171SOL    HW243934   6.281   4.545   6.771  0.9101 -1.7663  0.3499
14172SOL     OW43935   6.429   5.824   5.483  0.2531  0.1177 -0.2563
14172SOL    HW143936   6.521   5.837   5.463 -0.2182  1.7176 -1.6020
14172SOL    HW243937   6.409   5.737   5.447  1.2905 -0.3775  0.3348
14173SOL     OW43938   5.121   4.942   3.708  0.0844 -0.0186 -0.4313
14173SOL    HW143939   5.194   4.994   3.673  0.3496 -1.3844 -2.0181
14173SOL    HW243940   5.122   4.862   3.657 -0.5163 -1.4921  1.7234
14174SOL     OW43941   4.493   6.458   2.092  0.0736 -0.1010  0.1479
14174SOL    HW143942   4.429   6.444   2.023 -0.2466 -0.1143  0.4474
14174SOL    HW243943   4.476   6.389   2.156  1.0541 -0.7469 -0.2524
14175SOL     OW43944   5.055   2.553   5.385  0.2098  0.1022 -0.3808
14175SOL    HW143945   5.138   2.505   5.381 -0.4244 -0.9664 -1.1218
14175SOL    HW243946   4.991   2.494   5.346 -0.7806  1.1912 -0.4565
14176SOL     OW43947   1.809   2.714   7.285  0.6031 -0.2535 -0.2160
14176SOL    HW143948   1.880   2.738   7.225 -0.7841  0.2074 -1.7503
14176SOL    HW243949   1.760   2.795   7.298 -0.0444 -0.7128  0.2560
14177SOL     OW43950   0.453   5.489   5.924  0.1975 -0.5620 -0.2391
14177SOL    HW143951   0.367   5.488   5.966 -0.3480  1.3437 -1.2248
14177SOL    HW243952   0.442   5.431   5.849 -0.5106  0.3468 -0.8552
14178SOL     OW43953   1.832   7.880   3.261 -0.0275  0.4052  0.8011
14178SOL    HW143954   1.913   7.900   3.213 -0.6535  2.7478  0.6437
14178SOL    HW243955   1.829   7.784   3.261  1.0848  0.2604 -2.0433
14179SOL     OW43956   0.633   5.860   3.639  0.0395 -0.1890  0.5168
14179SOL    HW143957   0.614   5.920   3.567 -1.3666 -1.4026 -0.1614
14179SOL    HW243958   0.589   5.898   3.715  0.0551  0.1790  0.3439
14180SOL     OW43959   4.129   0.785   7.773  0.3884 -0.0570 -0.5765
14180SOL    HW143960   4.186   0.790   7.850 -0.3071 -0.6586 -0.0039
14180SOL    HW243961   4.147   0.698   7.737 -1.4927 -1.0388  0.7000
14181SOL     OW43962   3.983   7.162   5.574 -0.1025 -0.1007  0.2058
14181SOL    HW143963   3.947   7.230   5.630  0.1946 -0.7787  1.2560
14181SOL    HW243964   4.077   7.177   5.575 -0.0250 -0.5851  0.5336
14182SOL     OW43965   4.504   6.505   6.831 -0.4463 -0.5893  0.0731
14182SOL    HW143966   4.492   6.410   6.823  0.7711 -0.6690 -1.2156
14182SOL    HW243967   4.598   6.516   6.847 -0.4055  0.4441 -0.7864
14183SOL     OW43968   0.765   7.927   5.501 -0.0631  0.1290 -0.3222
14183SOL    HW143969   0.699   7.886   5.558 -0.6318  0.4879 -0.7129
14183SOL    HW243970   0.746   7.892   5.414 -1.1856  1.9128 -0.8556
14184SOL     OW43971   1.405   2.729   4.306  0.7106  0.0260 -0.1862
14184SOL    HW143972   1.328   2.751   4.357  1.3421 -0.7986  1.1994
14184SOL    HW243973   1.436   2.647   4.345  1.6801 -0.2033 -1.3929
14185SOL     OW43974   6.626   7.591   6.086 -0.0248 -0.0984 -0.2487
14185SOL    HW143975   6.542   7.612   6.128 -0.4729  0.0709 -1.1990
14185SOL    HW243976   6.691   7.604   6.155 -0.8269 -0.8129  0.6754
14186SOL     OW43977   5.253   5.535   1.904 -0.4087 -0.7180  0.5420
14186SOL    HW143978   5.241   5.534   1.809 -2.0134 -1.3918  0.7200
14186SOL    HW243979   5.293   5.620   1.922 -1.9154  0.2974 -0.5653
14187SOL     OW43980   6.905   4.245   6.198  0.4336  0.2428 -0.5880
14187SOL    HW143981   6.829   4.302   6.186 -2.3245 -2.4435  2.3334
14187SOL    HW243982   6.943   4.272   6.281 -1.8061 -2.7416  1.6260
14188SOL     OW43983   3.454   3.281   5.288  0.4220  0.3544 -0.2184
14188SOL    HW143984   3.368   3.312   5.317  0.3284  1.0603 -1.1811
14188SOL    HW243985   3.438   3.194   5.253  0.6627 -0.8635  2.4198
14189SOL     OW43986   5.765   3.813   2.170 -0.4844 -0.2833  0.4946
14189SOL    HW143987   5.686   3.780   2.128 -0.1248  0.3414 -0.7394
14189SOL    HW243988   5.753   3.908   2.172  0.9384 -0.0057 -1.3199
14190SOL     OW43989   3.962   3.952   3.070  0.3676 -0.7090  0.5273
14190SOL    HW143990   3.965   3.857   3.080 -0.0163 -0.7629  0.1473
14190SOL    HW243991   3.957   3.966   2.976  0.2890 -0.3148  0.5903
14191SOL     OW43992   6.998   7.318   7.657 -0.8580  0.0358 -0.2548
14191SOL    HW143993   6.921   7.345   7.606 -1.3657 -1.1832 -0.1597
14191SOL    HW243994   7.020   7.396   7.709 -2.2737  0.2896  0.0109
14192SOL     OW43995   7.009   1.943   3.948  0.2015  0.5454  0.1736
14192SOL    HW143996   7.006   2.036   3.922  1.0779  0.3432 -0.7355
14192SOL    HW243997   7.027   1.897   3.866 -0.9657 -0.5116  0.4925
14193SOL     OW43998   7.117   3.220   3.679 -0.2348 -0.8708 -0.8868
14193SOL    HW143999   7.172   3.195   3.605  0.9874  0.1298 -0.3688
14193SOL    HW244000   7.073   3.300   3.651  0.9203  0.0265 -0.2790
14194SOL     OW44001   0.132   7.772   0.202 -0.0602  0.1185 -0.5435
14194SOL    HW144002   0.092   7.731   0.126 -3.6006  0.1736  1.0852
14194SOL    HW244003   0.139   7.865   0.179  0.0325 -0.0492 -1.1961
14195SOL     OW44004   6.819   0.513   1.777  0.2170  0.4662  0.3004
14195SOL    HW144005   6.743   0.483   1.828  1.4561  0.2185  2.1049
14195SOL    HW244006   6.844   0.438   1.724  0.0853  0.0638  0.8045
14196SOL     OW44007   5.769   6.315   0.352  0.0599  0.5318 -0.2438
14196SOL    HW144008   5.838   6.324   0.417 -0.1156  0.0826  0.0062
14196SOL    HW244009   5.796   6.240   0.298 -0.0599  0.5709 -0.3603
14197SOL     OW44010   7.720   3.905   5.050  0.2510  0.0169 -0.7250
14197SOL    HW144011   7.717   3.997   5.027 -2.6482  1.0315  2.6861
14197SOL    HW244012   7.770   3.901   5.131  0.3076 -1.4144 -0.7890
14198SOL     OW44013   5.001   1.040   7.586  0.0333  0.3382 -0.1540
14198SOL    HW144014   5.046   0.964   7.549 -2.3152 -1.0876 -0.3095
14198SOL    HW244015   4.933   1.061   7.522 -2.1327 -0.2217  1.8182
14199SOL     OW44016   7.285   1.044   1.031  0.1658  0.0064  0.5077
14199SOL    HW144017   7.210   0.985   1.027  1.6000 -1.9167  0.0845
14199SOL    HW244018   7.274   1.102   0.956 -0.1810 -1.1955 -0.4095
14200SOL     OW44019   0.141   6.847   7.682  0.0836  0.0404 -0.3753
14200SOL    HW144020   0.192   6.831   7.761 -0.8543  2.4849  0.8022
14200SOL    HW244021   0.054   6.815   7.703 -0.1138  0.4899 -0.5107
14201SOL     OW44022   2.748   5.602   4.603 -0.2488  0.4960 -0.7563
14201SOL    HW144023   2.769   5.523   4.654  1.2136  0.3230 -1.5681
14201SOL    HW244024   2.658   5.588   4.573 -0.6247 -0.0418  0.5806
14202SOL     OW44025   1.098   3.790   1.491 -0.3402  0.2574 -0.0653
14202SOL    HW144026   1.140   3.755   1.569  0.7435 -1.6703 -1.4405
14202SOL    HW244027   1.166   3.789   1.424 -1.5632  0.6692 -1.3718
14203SOL     OW44028   2.669   6.513   7.986  0.0238 -0.0312  0.3090
14203SOL    HW144029   2.625   6.458   7.922  0.6156 -3.1026  2.3331
14203SOL    HW244030   2.723   6.572   7.933 -2.2631  0.1553 -2.0326
14204SOL     OW44031   7.405   1.322   7.182 -0.0702 -0.2464  0.5445
14204SOL    HW144032   7.414   1.345   7.275 -0.2225  0.5148  0.3756
14204SOL    HW244033   7.312   1.335   7.164 -0.1996 -1.2019  0.4927
14205SOL     OW44034   5.143   6.568   5.824  0.0661  0.0767 -0.7011
14205SOL    HW144035   5.052   6.578   5.854 -0.0263 -1.3952 -0.4040
14205SOL    HW244036   5.142   6.489   5.771  0.9782  0.6511 -1.5928
14206SOL     OW44037   5.208   2.888   1.973  0.0210  0.1026 -0.4962
14206SOL    HW144038   5.123   2.930   1.988 -0.2321  0.0807 -1.7637
14206SOL    HW244039   5.265   2.925   2.040 -1.1478 -0.3878  0.8262
14207SOL     OW44040   0.926   7.293   7.377 -0.2914 -0.1039 -0.0198
14207SOL    HW144041   0.912   7.216   7.432  0.7376 -0.0503  0.3366
14207SOL    HW244042   0.937   7.366   7.439  2.1098 -0.2396 -0.1856
14208SOL     OW44043   2.735   1.173   6.590 -0.4405 -0.3868 -0.1461
14208SOL    HW144044   2.757   1.168   6.497  1.6561  0.2105  0.2706
14208SOL    HW244045   2.661   1.234   6.595  0.7800  1.2490 -1.2477
14209SOL     OW44046   7.079   1.791   0.635  0.1441  0.2878 -0.2707
14209SOL    HW144047   7.036   1.779   0.719 -1.1785  1.0781 -0.8101
14209SOL    HW244048   7.152   1.850   0.653 -0.1521  0.4828  0.3031
14210SOL     OW44049   6.779   0.310   6.518  0.1174 -0.1215  0.1166
14210SOL    HW144050   6.739   0.242   6.573 -0.4455  0.0989 -0.0140
14210SOL    HW244051   6.817   0.262   6.445  0.5112 -0.3800  0.4849
14211SOL     OW44052   6.504   2.980   2.339 -0.3290 -0.0732 -0.3966
14211SOL    HW144053   6.505   2.904   2.281  0.8447 -0.7476  0.4564
14211SOL    HW244054   6.414   2.985   2.372 -0.1751 -1.7109  0.3163
14212SOL     OW44055   2.476   2.285   0.689  0.4368 -0.1161  0.6040
14212SOL    HW144056   2.538   2.231   0.640 -0.7058  0.2157 -1.2969
14212SOL    HW244057   2.404   2.226   0.710  0.1403  0.1523  0.3593
14213SOL     OW44058   0.511   7.047   4.371  0.3121 -0.4366  0.1156
14213SOL    HW144059   0.557   7.118   4.327  0.2383  0.9871  2.1707
14213SOL    HW244060   0.418   7.069   4.361  0.2441 -0.7981 -0.0783
14214SOL     OW44061   2.185   7.144   3.665  0.2256  0.2491  0.6502
14214SOL    HW144062   2.236   7.185   3.595  1.8095 -0.6176  1.2440
14214SOL    HW244063   2.194   7.050   3.650  0.7762  0.0418  2.1184
14215SOL     OW44064   1.533   6.462   0.600  0.6557  0.3627 -0.1963
14215SOL    HW144065   1.484   6.385   0.570  0.1755  0.7619 -0.4637
14215SOL    HW244066   1.537   6.453   0.695  0.7621 -0.0862 -0.2443
14216SOL     OW44067   0.838   6.748   5.202 -0.3038 -0.4996 -0.2320
14216SOL    HW144068   0.820   6.715   5.114 -2.5606 -0.2403  0.0572
14216SOL    HW244069   0.820   6.674   5.260 -1.3376  0.0214  0.1465
14217SOL     OW44070   5.477   4.906   1.488  0.1078 -0.0755  0.2030
14217SOL    HW144071   5.453   4.981   1.434 -0.2498  0.1165  0.6212
14217SOL    HW244072   5.398   4.889   1.541  0.3384 -0.4660  0.4212
14218SOL     OW44073   0.619   4.271   4.535 -0.0416  0.4401  0.2244
14218SOL    HW144074   0.627   4.224   4.618 -2.3917  1.2069  0.9712
14218SOL    HW244075   0.584   4.206   4.474  0.7004  0.1516  0.0944
14219SOL     OW44076   1.887   0.612   6.170 -0.4187 -0.1414  0.4552
14219SOL    HW144077   1.803   0.657   6.181 -1.6131 -2.0336 -0.3547
14219SOL    HW244078   1.893   0.554   6.245  0.3032  0.1729  0.6428
14220SOL     OW44079   0.493   1.365   1.096  0.0390 -0.3662  0.1174
14220SOL    HW144080   0.547   1.364   1.017  0.3493  0.1307  0.3186
14220SOL    HW244081   0.412   1.320   1.070  0.3990 -0.7966 -0.2880
14221SOL     OW44082   7.477   1.286   5.321  0.1218  0.1936 -0.1768
14221SOL    HW144083   7.567   1.295   5.290 -0.6385  1.5797 -2.2561
14221SOL    HW244084   7.473   1.198   5.359  2.5833  0.4905  0.9747
14222SOL     OW44085   3.253   0.286   3.061  0.4534 -0.2030 -0.1996
14222SOL    HW144086   3.323   0.222   3.070  1.4087  0.5762 -1.7094
14222SOL    HW244087   3.296   0.371   3.069 -0.2724  0.2921 -1.2239
14223SOL     OW44088   5.046   2.236   8.014  0.0152  0.3324 -0.5523
14223SOL    HW144089   5.024   2.218   7.922 -3.6544 -2.6612  0.6243
14223SOL    HW244090   5.005   2.321   8.032  1.9984  1.6672 -1.8930
14224SOL     OW44091   6.960   3.747   3.695  0.1750  0.1463  0.4440
14224SOL    HW144092   6.911   3.784   3.622  1.2854  2.4281  0.7946
14224SOL    HW244093   6.901   3.756   3.770  1.0436  2.9454  0.8773
14225SOL     OW44094   2.180   3.551   6.160 -0.6134 -0.1624 -0.1909
14225SOL    HW144095   2.239   3.619   6.129  0.7140  0.4957  3.2809
14225SOL    HW244096   2.227   3.469   6.141  0.8845  0.2914  1.2102
14226SOL     OW44097   6.401   3.844   5.547  0.0233 -0.4221  0.0278
14226SOL    HW144098   6.457   3.851   5.470  0.8627 -0.8293  0.5834
14226SOL    HW244099   6.451   3.886   5.617 -0.9162  0.3385  0.2607
14227SOL     OW44100   3.924   7.250   0.138 -0.9776  0.7178 -0.2375
14227SOL    HW144101   3.876   7.211   0.211 -1.4218  0.2270 -0.7796
14227SOL    HW244102   3.902   7.343   0.142  1.8843  1.4352  2.4590
14228SOL     OW44103   1.858   3.265   6.406  0.4864 -0.6790  0.2239
14228SOL    HW144104   1.953   3.269   6.419  0.6692 -1.5966 -0.7431
14228SOL    HW244105   1.829   3.190   6.458  0.5986 -1.6736 -1.1231
14229SOL     OW44106   4.664   3.486   7.623  0.2783  0.8828 -0.2091
14229SOL    HW144107   4.679   3.391   7.623 -0.4531  0.7549  0.5572
14229SOL    HW244108   4.745   3.523   7.588  1.0586  0.0338  0.6277
14230SOL     OW44109   0.560   4.422   1.286  0.2803  0.2147 -0.3823
14230SOL    HW144110   0.484   4.450   1.235 -0.5910  1.0313  1.2915
14230SOL    HW244111   0.532   4.427   1.377  2.0925 -0.2583  0.2585
14231SOL     OW44112   7.289   3.005   1.903 -0.0169 -0.2055  0.4269
14231SOL    HW144113   7.200   2.975   1.921 -0.4924  2.2302  2.6047
14231SOL    HW244114   7.344   2.958   1.966 -0.1413  0.3248  0.9270
14232SOL     OW44115   3.529   2.801   2.582 -0.3110 -0.7335 -0.3374
14232SOL    HW144116   3.512   2.765   2.495 -0.5033  0.9162 -1.0216
14232SOL    HW244117   3.620   2.779   2.600  0.1785  0.1419 -1.6077
14233SOL     OW44118   1.999   0.397   1.089 -0.2140 -0.3468 -0.0050
14233SOL    HW144119   1.948   0.432   1.161  0.1811 -0.3782  0.2940
14233SOL    HW244120   1.998   0.466   1.023 -0.0812 -0.0785  0.2709
14234SOL     OW44121   6.844   2.661   2.991 -0.0452  0.4699 -0.0572
14234SOL    HW144122   6.925   2.696   3.029  0.5347 -0.3819 -0.4810
14234SOL    HW244123   6.777   2.723   3.018  0.7399  1.1751  0.3420
14235SOL     OW44124   3.745   7.237   7.882  0.4646  0.3601  0.7353
14235SOL    HW144125   3.743   7.299   7.809  3.5679  0.4371  0.5571
14235SOL    HW244126   3.735   7.151   7.840 -1.6859  0.5617  0.7388
14236SOL     OW44127   1.127   5.595   6.925  0.3123  0.3744  0.4991
14236SOL    HW144128   1.111   5.582   6.832  1.1050 -0.2911  0.4396
14236SOL    HW244129   1.140   5.690   6.935  0.9627  0.3662 -0.2009
14237SOL     OW44130   5.585   0.438   5.570  0.3120  0.2046  0.4450
14237SOL    HW144131   5.499   0.398   5.579  0.2884  0.1656  0.0490
14237SOL    HW244132   5.591   0.464   5.478  0.7239  0.1976  0.4650
14238SOL     OW44133   1.247   0.803   3.571  0.5492  0.1608 -0.1289
14238SOL    HW144134   1.299   0.786   3.650 -0.1614  0.3337  0.3787
14238SOL    HW244135   1.180   0.864   3.599  0.6199  0.6589 -1.0017
14239SOL     OW44136   1.498   0.879   3.472 -0.3425 -0.1327 -0.1781
14239SOL    HW144137   1.409   0.856   3.499 -1.2092 -0.5269 -2.9923
14239SOL    HW244138   1.509   0.836   3.387  3.1045 -1.2969  0.6923
14240SOL     OW44139   6.529   4.190   3.463  0.0164 -0.4181 -0.8176
14240SOL    HW144140   6.519   4.167   3.555 -1.2310 -0.2376 -0.8849
14240SOL    HW244141   6.440   4.207   3.433  0.4840  0.3072 -1.8591
14241SOL     OW44142   1.855   4.651   7.437  0.1381 -0.0413  0.4725
14241SOL    HW144143   1.894   4.667   7.523  0.2896  0.4530  0.3192
14241SOL    HW244144   1.881   4.562   7.415 -1.2973 -0.7965  1.6589
14242SOL     OW44145   0.496   2.829   6.130  0.3094 -0.0695  0.0842
14242SOL    HW144146   0.527   2.751   6.085 -1.2518 -0.8273  0.2278
14242SOL    HW244147   0.567   2.852   6.189  0.9052 -1.2638 -0.1256
14243SOL     OW44148   1.813   4.907   3.436  0.0720 -0.3646 -0.1258
14243SOL    HW144149   1.763   4.854   3.497  0.3857 -1.1086 -0.4977
14243SOL    HW244150   1.786   4.877   3.349  0.8433 -0.4884 -0.3335
14244SOL     OW44151   7.785   6.942   2.347 -0.4221 -0.2773 -0.3110
14244SOL    HW144152   7.700   6.951   2.391 -0.9410 -0.5500 -1.2236
14244SOL    HW244153   7.766   6.890   2.268  0.6543 -0.6348 -0.3583
14245SOL     OW44154   7.399   2.959   2.259 -0.4810  0.1480 -0.1276
14245SOL    HW144155   7.345   2.977   2.336 -2.1102  0.4568 -1.2889
14245SOL    HW244156   7.489   2.969   2.290 -1.1158  1.2089  1.4947
14246SOL     OW44157   6.524   1.827   2.005 -0.2467  0.2907  0.3353
14246SOL    HW144158   6.511   1.854   2.096 -1.0765  0.8947  0.0553
14246SOL    HW244159   6.463   1.755   1.992  0.4434 -0.3251  0.4772
14247SOL     OW44160   3.136   7.010   7.450 -0.0498 -0.2390 -0.6415
14247SOL    HW144161   3.131   7.062   7.370  0.8135  1.9564  0.6272
14247SOL    HW244162   3.050   7.024   7.491  0.3772  0.7320 -0.0312
14248SOL     OW44163   7.661   3.519   5.490  0.3231  0.1969 -0.1234
14248SOL    HW144164   7.658   3.507   5.585 -2.1179 -0.3054 -0.2161
14248SOL    HW244165   7.708   3.601   5.478  1.6745 -0.2949  1.4354
14249SOL     OW44166   1.712   1.902   7.454 -0.5154  0.3217 -0.1446
14249SOL    HW144167   1.761   1.942   7.382 -0.3208 -1.2201 -0.9295
14249SOL    HW244168   1.692   1.814   7.422  0.4901 -0.7975  2.0757
14250SOL     OW44169   5.094   4.042   3.468  0.0151  0.0747 -0.0867
14250SOL    HW144170   5.022   4.028   3.531  0.1308  2.5841  0.7344
14250SOL    HW244171   5.168   4.067   3.523  0.6671  0.4353 -1.1217
14251SOL     OW44172   3.274   3.273   5.706  0.3997 -1.0151  0.6364
14251SOL    HW144173   3.367   3.273   5.684  0.4021 -2.5352  0.5734
14251SOL    HW244174   3.269   3.322   5.789  1.2398 -0.8444  0.5940
14252SOL     OW44175   1.172   1.152   3.193  0.0562  0.2539 -0.3382
14252SOL    HW144176   1.157   1.104   3.274  0.0927  1.1586  0.2285
14252SOL    HW244177   1.238   1.218   3.216 -1.0830  1.5664 -0.6492
14253SOL     OW44178   7.661   2.827   7.432  0.1628  0.2157 -0.0114
14253SOL    HW144179   7.611   2.900   7.470  0.5917  0.2490  0.5003
14253SOL    HW244180   7.747   2.834   7.472  1.0233  0.9692 -1.8866
14254SOL     OW44181   6.281   6.180   6.451  0.1882  0.9054  0.1049
14254SOL    HW144182   6.322   6.164   6.536  0.2898 -0.0464 -0.1049
14254SOL    HW244183   6.351   6.163   6.387  0.3644  2.4803 -0.1485
14255SOL     OW44184   5.419   0.866   0.804 -0.3429 -0.9316  0.0880
14255SOL    HW144185   5.500   0.901   0.768 -0.5156  0.1887  0.7350
14255SOL    HW244186   5.447   0.801   0.868 -0.0040 -1.7685 -0.8943
14256SOL     OW44187   2.676   1.280   6.127 -0.1662 -0.4376  0.6408
14256SOL    HW144188   2.643   1.365   6.098 -0.8482 -1.5051 -2.0270
14256SOL    HW244189   2.663   1.222   6.051 -0.2341 -3.0685  2.5249
14257SOL     OW44190   1.323   5.480   7.110 -0.2731 -0.1552 -0.7594
14257SOL    HW144191   1.267   5.474   7.032  0.6312 -0.7850 -1.3806
14257SOL    HW244192   1.291   5.557   7.157 -0.4380  0.6148 -2.0774
14258SOL     OW44193   1.167   7.676   3.030 -0.2474  0.7744 -0.2739
14258SOL    HW144194   1.232   7.669   3.100 -1.1905 -0.6869  0.4944
14258SOL    HW244195   1.110   7.600   3.043 -1.1215  1.1198 -1.9396
14259SOL     OW44196   1.594   2.351   2.876  0.7826 -0.4514  0.4855
14259SOL    HW144197   1.539   2.332   2.800 -2.1605  2.2497  1.6973
14259SOL    HW244198   1.542   2.320   2.951  1.6683  0.6912  1.6046
14260SOL     OW44199   0.186   5.130   4.166  0.0259  0.1407 -0.3491
14260SOL    HW144200   0.147   5.213   4.137 -0.5322 -0.0704 -0.2226
14260SOL    HW244201   0.131   5.102   4.240 -0.9451 -1.2737 -1.5537
14261SOL     OW44202   0.952   1.040   2.554 -0.0342 -1.1218 -1.0997
14261SOL    HW144203   0.931   0.950   2.530  1.4412 -1.6609 -0.4781
14261SOL    HW244204   1.047   1.040   2.565 -0.3286 -0.8308  3.9616
14262SOL     OW44205   3.887   5.983   4.102  0.3294  0.0013 -0.4967
14262SOL    HW144206   3.849   6.049   4.160  1.9977  0.9035 -0.3860
14262SOL    HW244207   3.921   6.032   4.028 -1.4859 -1.1104 -2.1659
14263SOL     OW44208   0.903   0.337   0.704 -0.6683 -0.1848  0.2449
14263SOL    HW144209   0.817   0.335   0.662 -0.1385  0.0088 -0.8718
14263SOL    HW244210   0.905   0.421   0.750 -0.6286  0.3466 -0.7078
14264SOL     OW44211   7.561   5.898   1.560 -0.8612 -0.2057  0.2302
14264SOL    HW144212   7.530   5.820   1.606 -0.4278  1.3482  3.4335
14264SOL    HW244213   7.646   5.873   1.525 -0.8308 -1.2299  0.9910
14265SOL     OW44214   6.292   2.535   2.887 -0.4521  0.5546 -0.1654
14265SOL    HW144215   6.369   2.479   2.874 -1.2902 -0.4998 -0.7884
14265SOL    HW244216   6.301   2.604   2.822  1.0327  1.7000  1.1721
14266SOL     OW44217   7.358   1.536   1.334 -0.2271 -0.0051  0.2622
14266SOL    HW144218   7.316   1.560   1.417 -0.2083  0.5453  0.1196
14266SOL    HW244219   7.448   1.513   1.358 -0.1841  0.2790  0.3802
14267SOL     OW44220   0.823   6.549   3.461 -0.7388  0.6385  0.6223
14267SOL    HW144221   0.745   6.502   3.432  0.4672 -0.6403 -0.7148
14267SOL    HW244222   0.883   6.481   3.491 -0.7862  1.7228  3.4577
14268SOL     OW44223   0.348   0.088   7.182  0.1011  0.4002 -0.2127
14268SOL    HW144224   0.411   0.017   7.165  0.6406  0.6764  0.5610
14268SOL    HW244225   0.388   0.137   7.254 -0.2532  1.5055 -0.7607
14269SOL     OW44226   1.370   7.874   6.667  0.2339 -0.6384 -0.1080
14269SOL    HW144227   1.274   7.872   6.659  0.2529  0.0337 -0.6572
14269SOL    HW244228   1.402   7.857   6.578  0.5771  0.7129 -0.2784
14270SOL     OW44229   3.217   1.038   2.069 -0.5090  0.9078  0.4144
14270SOL    HW144230   3.219   1.039   2.164  0.6911  1.3457  0.3991
14270SOL    HW244231   3.155   0.968   2.047  0.5980 -0.4834  1.5108
14271SOL     OW44232   5.347   5.382   6.040 -0.4344  0.7227  0.3512
14271SOL    HW144233   5.411   5.429   6.094  1.2603  0.0717 -1.0036
14271SOL    HW244234   5.315   5.447   5.977  1.2076  0.3632 -0.9152
14272SOL     OW44235   4.277   2.558   6.427 -0.5550 -0.0533  0.2325
14272SOL    HW144236   4.292   2.652   6.440 -0.5653 -0.2121  1.5199
14272SOL    HW244237   4.298   2.543   6.335  1.1394  0.8979  0.4082
14273SOL     OW44238   1.160   2.544   5.212 -0.3187 -0.2871  0.7418
14273SOL    HW144239   1.194   2.464   5.253 -0.4200 -1.1412 -0.7398
14273SOL    HW244240   1.092   2.574   5.272 -0.7796 -1.7351  1.0009
14274SOL     OW44241   7.354   6.445   1.514  0.1550 -0.0558 -0.4240
14274SOL    HW144242   7.400   6.528   1.528  0.3989 -0.3545  0.6122
14274SOL    HW244243   7.361   6.430   1.420  0.9928  0.5916 -0.4826
14275SOL     OW44244   6.370   7.141   0.324 -0.3453 -0.4596  0.6256
14275SOL    HW144245   6.423   7.063   0.337  0.5817 -0.5557 -2.6743
14275SOL    HW244246   6.433   7.214   0.329 -0.3168 -0.3598 -0.7504
14276SOL     OW44247   1.500   4.450   4.354  0.1991  0.8344 -0.0815
14276SOL    HW144248   1.472   4.514   4.418 -0.3304  0.3835  0.1449
14276SOL    HW244249   1.595   4.459   4.350  0.3901  0.0242  1.6972
14277SOL     OW44250   4.298   1.645   1.764 -0.2181 -0.2893 -0.0178
14277SOL    HW144251   4.346   1.725   1.787 -0.4585 -0.0223 -0.4402
14277SOL    HW244252   4.220   1.648   1.819 -0.2629 -0.1988 -0.0871
14278SOL     OW44253   7.530   3.754   2.431 -0.1955 -0.0619  0.0580
14278SOL    HW144254   7.607   3.717   2.389  0.1760  0.9703 -0.2041
14278SOL    HW244255   7.476   3.678   2.453  0.3274 -0.7157 -0.8510
14279SOL     OW44256   1.765   4.504   4.435 -0.3164  0.3238 -0.2905
14279SOL    HW144257   1.822   4.556   4.492 -1.0686  0.5391  0.2807
14279SOL    HW244258   1.808   4.508   4.350  0.2021  0.9984 -0.0171
14280SOL     OW44259   0.596   2.799   3.700  0.2646 -0.2140  0.1885
14280SOL    HW144260   0.570   2.891   3.699  2.4769  0.5015 -1.6185
14280SOL    HW244261   0.553   2.760   3.623  1.8349  0.1816 -0.9415
14281SOL     OW44262   0.677   5.912   5.520  0.2462 -0.0808  0.2550
14281SOL    HW144263   0.746   5.889   5.583 -0.0979  0.6908  0.9427
14281SOL    HW244264   0.622   5.834   5.516 -0.4498  0.2677  1.9273
14282SOL     OW44265   5.731   0.670   4.232 -0.1134 -0.0631 -0.1571
14282SOL    HW144266   5.813   0.686   4.185 -0.0060  0.2881  0.1521
14282SOL    HW244267   5.724   0.574   4.234  1.5907 -0.2345  2.0065
14283SOL     OW44268   4.582   6.364   7.659 -0.2494 -0.1617 -0.2023
14283SOL    HW144269   4.653   6.304   7.680  0.8571  0.6514 -1.4632
14283SOL    HW244270   4.525   6.313   7.601  1.3151  0.2795 -2.2626
14284SOL     OW44271   4.981   1.543   5.341 -0.4163  0.3727 -0.1622
14284SOL    HW144272   4.975   1.636   5.322 -0.5630  0.3138 -0.4042
14284SOL    HW244273   4.891   1.512   5.341 -0.3298  0.1072 -0.7175
14285SOL     OW44274   5.626   3.231   2.161  0.2114  0.1292  0.3048
14285SOL    HW144275   5.717   3.255   2.144  0.4605  0.5020  2.0015
14285SOL    HW244276   5.586   3.309   2.199 -0.4631 -0.4295  0.7777
14286SOL     OW44277   7.986   1.001   7.508 -0.1881 -0.0205  0.3887
14286SOL    HW144278   8.039   0.921   7.511  1.6398  1.1427  1.2426
14286SOL    HW244279   7.937   1.000   7.590  0.6342  0.2215  0.8977
14287SOL     OW44280   1.559   5.114   0.687 -0.6117 -0.4372  0.1468
14287SOL    HW144281   1.514   5.067   0.757  0.3567  1.2728  1.9757
14287SOL    HW244282   1.580   5.199   0.724  1.3707 -0.0466 -1.6900
14288SOL     OW44283   1.217   1.509   2.735  0.3856 -0.6255 -0.5089
14288SOL    HW144284   1.184   1.528   2.822  1.7552 -0.5914  0.0225
14288SOL    HW244285   1.288   1.572   2.722 -0.3874  0.0037 -2.0304
14289SOL     OW44286   6.539   2.700   6.260  0.4776 -0.8315 -0.8225
14289SOL    HW144287   6.465   2.659   6.305  0.0748 -0.9842 -1.6117
14289SOL    HW244288   6.503   2.782   6.225  1.5062  0.7662  1.5735
14290SOL     OW44289   1.000   6.588   2.353  0.1967 -0.1672  0.1092
14290SOL    HW144290   0.924   6.636   2.321 -0.1301 -0.4185  0.5088
14290SOL    HW244291   0.984   6.497   2.329 -1.1576 -0.7571  2.9622
14291SOL     OW44292   4.613   0.626   7.130 -0.1077 -0.4416 -0.1840
14291SOL    HW144293   4.674   0.627   7.056 -0.1747  0.3729 -0.2356
14291SOL    HW244294   4.618   0.536   7.163  1.0992 -0.4094 -0.2069
14292SOL     OW44295   6.896   1.638   1.649 -0.0613  0.2463  0.5807
14292SOL    HW144296   6.881   1.688   1.729  0.2715  2.8407 -0.8618
14292SOL    HW244297   6.975   1.587   1.667  0.2386  1.0766  1.7604
14293SOL     OW44298   0.459   2.627   4.046  0.1187  0.5688 -0.4796
14293SOL    HW144299   0.537   2.675   4.020  0.5858  0.4673  0.6836
14293SOL    HW244300   0.415   2.684   4.109  1.2455 -0.9012  1.7677
14294SOL     OW44301   3.060   4.179   4.024 -0.2246 -0.1287  0.4014
14294SOL    HW144302   3.100   4.092   4.024 -0.7688 -0.3927 -0.3871
14294SOL    HW244303   3.005   4.180   4.102 -0.3380 -0.5591  0.3328
14295SOL     OW44304   4.540   1.063   5.388 -0.3931  0.2413 -0.5209
14295SOL    HW144305   4.606   1.080   5.456 -1.8256  0.6640  0.8262
14295SOL    HW244306   4.516   1.149   5.356 -1.6273  0.2530  0.3580
14296SOL     OW44307   5.982   1.610   6.185 -0.6751 -0.1743 -0.1883
14296SOL    HW144308   5.929   1.606   6.106 -2.1537 -2.8425  0.8073
14296SOL    HW244309   5.928   1.658   6.248  0.0869  1.0871 -0.4607
14297SOL     OW44310   1.395   1.913   6.417  0.4331 -0.4760  0.0331
14297SOL    HW144311   1.389   1.876   6.505  0.2714 -2.1540 -0.6610
14297SOL    HW244312   1.356   1.847   6.360 -2.5869  1.9435 -0.9783
14298SOL     OW44313   7.817   3.895   8.043  0.3399 -0.3070 -0.0310
14298SOL    HW144314   7.882   3.841   8.090 -0.1010 -0.2334  0.6779
14298SOL    HW244315   7.807   3.852   7.958 -0.2655 -1.5715  0.6514
14299SOL     OW44316   0.496   5.645   5.206  0.2529 -0.0740  0.2985
14299SOL    HW144317   0.464   5.575   5.149  0.3723 -1.2753  1.6542
14299SOL    HW244318   0.419   5.675   5.253  0.3971 -0.0706  0.5342
14300SOL     OW44319   5.315   7.275   4.199  0.3489 -0.0671 -0.3521
14300SOL    HW144320   5.336   7.209   4.132  1.5643  1.0037 -1.0641
14300SOL    HW244321   5.223   7.258   4.220  0.2169 -1.0637 -1.5752
14301SOL     OW44322   7.920   1.653   6.863 -0.3359 -0.2152  0.0385
14301SOL    HW144323   7.938   1.634   6.771  0.2307  1.1804 -0.1698
14301SOL    HW244324   8.006   1.677   6.899 -0.5081 -0.9839  0.9988
14302SOL     OW44325   6.360   0.866   2.098  0.0609  0.4450 -0.0110
14302SOL    HW144326   6.403   0.830   2.176 -1.0756 -2.0965 -0.4526
14302SOL    HW244327   6.405   0.824   2.024 -1.1995  0.0076 -0.5655
14303SOL     OW44328   5.818   6.018   6.728 -0.5758 -0.1998  0.7009
14303SOL    HW144329   5.857   5.991   6.645 -0.6413 -1.0835  0.9472
14303SOL    HW244330   5.879   6.081   6.765  0.0205 -0.6663  0.5169
14304SOL     OW44331   6.857   5.566   4.189  0.3124  0.1534 -0.1577
14304SOL    HW144332   6.934   5.534   4.141  0.8222  0.7821  0.2168
14304SOL    HW244333   6.872   5.661   4.197 -0.7436  0.3609 -0.5022
14305SOL     OW44334   0.816   5.159   6.511  0.1894  0.2355  0.0018
14305SOL    HW144335   0.843   5.071   6.537 -1.5080 -0.1383  0.6244
14305SOL    HW244336   0.772   5.194   6.588 -0.0017  1.2733 -0.5655
14306SOL     OW44337   1.264   0.277   5.377 -0.3434  0.2893 -0.4975
14306SOL    HW144338   1.353   0.244   5.387 -0.0167  1.1255 -0.5681
14306SOL    HW244339   1.214   0.201   5.349  0.9102  0.3632 -3.3218
14307SOL     OW44340   2.346   0.547   6.132  0.4082 -0.8340 -0.0643
14307SOL    HW144341   2.338   0.499   6.050 -0.1990 -0.5208 -0.1959
14307SOL    HW244342   2.263   0.592   6.142  1.0401  0.3929 -0.0770
14308SOL     OW44343   1.141   1.928   7.575  0.0388  0.7704 -1.0489
14308SOL    HW144344   1.054   1.890   7.585  0.7124 -1.5654 -3.1570
14308SOL    HW244345   1.175   1.933   7.665 -1.8079  0.6518 -0.2975
14309SOL     OW44346   6.503   3.222   0.701  0.4928  0.0086 -0.1251
14309SOL    HW144347   6.446   3.296   0.681  1.0031  0.7201  0.9623
14309SOL    HW244348   6.457   3.146   0.665 -0.2334  0.7990 -0.9030
14310SOL     OW44349   3.961   0.443   5.155  0.4486 -0.7418 -0.0875
14310SOL    HW144350   3.869   0.471   5.152  0.2374 -1.2313  1.1012
14310SOL    HW244351   3.982   0.441   5.248  1.2911 -1.8109 -0.2773
14311SOL     OW44352   3.951   1.605   2.703  0.0339  0.8500  0.2072
14311SOL    HW144353   3.874   1.652   2.672  1.0131  1.1602 -1.9252
14311SOL    HW244354   3.922   1.515   2.713 -0.7586  1.0820  0.0574
14312SOL     OW44355   0.109   3.927   1.434 -0.3114 -0.0766 -0.3204
14312SOL    HW144356   0.121   3.935   1.339 -0.4800  0.5910 -0.2923
14312SOL    HW244357   0.018   3.900   1.444  0.4404 -2.8911 -0.4434
14313SOL     OW44358   5.341   6.045   2.120  0.0472  0.2459  0.3285
14313SOL    HW144359   5.365   6.134   2.094  1.0544  0.1782  0.9520
14313SOL    HW244360   5.421   6.010   2.160 -0.7547 -0.4448  1.3847
14314SOL     OW44361   5.761   1.781   5.878 -0.3952 -0.2910  0.0888
14314SOL    HW144362   5.808   1.750   5.800 -1.4631 -2.1752  0.1069
14314SOL    HW244363   5.718   1.702   5.912 -1.0174  0.7497  1.8434
14315SOL     OW44364   5.224   2.980   5.129 -0.0474  0.3289 -0.8255
14315SOL    HW144365   5.223   2.885   5.128  1.3938  0.2877 -1.1509
14315SOL    HW244366   5.163   3.005   5.199  0.5819 -0.8541  0.1702
14316SOL     OW44367   3.802   7.965   0.007  0.5396  0.7297  0.0773
14316SOL    HW144368   3.892   7.936   0.022  0.5400 -0.6095 -2.1203
14316SOL    HW244369   3.755   7.887  -0.022 -1.1315  1.5802  0.3561
14317SOL     OW44370   2.014   2.387   4.950  0.1051 -0.2541  0.2222
14317SOL    HW144371   1.985   2.440   4.876 -0.4339 -0.4816  0.2630
14317SOL    HW244372   2.091   2.341   4.918 -0.1994 -0.4485 -0.2407
14318SOL     OW44373   5.167   7.611   2.721 -0.0848 -0.1965 -0.4155
14318SOL    HW144374   5.128   7.651   2.644 -1.0452  2.7378  1.4265
14318SOL    HW244375   5.260   7.632   2.715 -0.4223  1.5752  0.0060
14319SOL     OW44376   1.139   2.840   1.500 -0.3261  0.0576  0.0989
14319SOL    HW144377   1.153   2.838   1.595 -0.0065  0.5121  0.0603
14319SOL    HW244378   1.109   2.751   1.479  1.3325 -0.5919  0.3495
14320SOL     OW44379   2.140   1.011   3.439 -0.0367 -0.3219  0.1777
14320SOL    HW144380   2.136   1.095   3.483  4.3938  0.9726 -1.3576
14320SOL    HW244381   2.159   0.948   3.508 -0.9847  0.2981  1.0306
14321SOL     OW44382   3.365   5.422   1.231 -0.1453 -0.1163  0.2581
14321SOL    HW144383   3.368   5.518   1.222  0.2070 -0.2074 -0.7214
14321SOL    HW244384   3.338   5.391   1.144 -1.8904 -0.8383  1.0063
14322SOL     OW44385   6.231   1.844   3.114  0.0594 -0.2472  0.2277
14322SOL    HW144386   6.153   1.797   3.143 -0.7806 -0.3149 -1.9394
14322SOL    HW244387   6.290   1.776   3.083  0.6302 -0.1384  1.0683
14323SOL     OW44388   1.174   1.934   7.087 -0.1746  0.3129 -0.0887
14323SOL    HW144389   1.198   1.878   7.162  1.2916  1.1393  0.1034
14323SOL    HW244390   1.216   2.018   7.106 -0.1852  0.6859 -1.6195
14324SOL     OW44391   0.574   4.840   3.009 -0.6551 -0.0840 -0.0192
14324SOL    HW144392   0.494   4.887   3.031 -1.5096 -1.1508 -0.7649
14324SOL    HW244393   0.552   4.748   3.019  0.9099 -0.3864  1.1226
14325SOL     OW44394   2.905   3.018   2.443 -0.5146 -0.5437 -0.0922
14325SOL    HW144395   2.975   3.081   2.464 -1.0955  0.1943 -0.3220
14325SOL    HW244396   2.855   3.011   2.525  0.0704 -1.4077  0.2055
14326SOL     OW44397   7.185   5.785   7.887 -0.1177  0.3894  0.3107
14326SOL    HW144398   7.258   5.733   7.855  0.9717  0.9963  1.7017
14326SOL    HW244399   7.221   5.873   7.899 -1.5654  1.1703 -0.7017
14327SOL     OW44400   2.236   0.273   1.148 -0.2074  0.5837 -0.0738
14327SOL    HW144401   2.265   0.203   1.090 -0.4109  0.1959  0.2919
14327SOL    HW244402   2.158   0.309   1.105 -1.5634 -1.0287  0.9411
14328SOL     OW44403   3.424   6.692   1.993 -0.0750 -0.2765  0.4294
14328SOL    HW144404   3.429   6.747   2.070  0.1746 -2.7162  2.2783
14328SOL    HW244405   3.508   6.646   1.990  0.2337  0.3330 -1.7886
14329SOL     OW44406   0.832   3.496   4.034 -0.2802  0.1881 -0.2721
14329SOL    HW144407   0.911   3.500   4.088 -0.7153 -0.1577  0.4045
14329SOL    HW244408   0.761   3.482   4.097 -0.7392 -0.7220 -0.9708
14330SOL     OW44409   3.402   2.973   6.797 -0.1414  0.2006 -0.1832
14330SOL    HW144410   3.481   3.026   6.799  1.0237 -1.4565  1.9960
14330SOL    HW244411   3.337   3.024   6.845  0.2923  0.5746  0.0096
14331SOL     OW44412   5.806   1.118   5.939  0.1334  0.0311  0.3668
14331SOL    HW144413   5.738   1.054   5.961  1.5858 -1.8095 -0.2589
14331SOL    HW244414   5.819   1.167   6.021 -2.7501  1.3116  0.1753
14332SOL     OW44415   5.302   0.102   4.568  0.2313 -0.0254 -0.0478
14332SOL    HW144416   5.284   0.063   4.654  0.7620  0.1899  0.1675
14332SOL    HW244417   5.347   0.033   4.519 -1.4635 -0.6911 -0.7155
14333SOL     OW44418   3.983   2.823   3.888 -0.1222 -0.3997 -0.6453
14333SOL    HW144419   4.048   2.837   3.957 -1.2379  1.9887  0.0259
14333SOL    HW244420   4.034   2.822   3.807  0.9336 -0.4585  0.0016
14334SOL     OW44421   5.733   7.247   2.784  0.1379  0.3733 -0.5024
14334SOL    HW144422   5.705   7.156   2.770 -0.7730  0.4789  0.5325
14334SOL    HW244423   5.715   7.290   2.701 -1.5537  0.1146 -0.2948
14335SOL     OW44424   5.229   2.597   7.997  0.3459  0.0978 -0.4425
14335SOL    HW144425   5.321   2.624   8.000  0.3103  0.1278  0.8408
14335SOL    HW244426   5.209   2.590   7.904  1.9035 -0.8095 -0.7267
14336SOL     OW44427   2.826   4.922   5.123 -0.4645  0.0835 -0.3523
14336SOL    HW144428   2.829   4.827   5.114  0.2450 -0.1034  1.3917
14336SOL    HW244429   2.906   4.953   5.081  1.3508 -0.4998  2.3785
14337SOL     OW44430   1.289   3.699   7.826 -0.4934  0.2617  0.3585
14337SOL    HW144431   1.224   3.744   7.772 -0.1008 -0.2536 -0.5676
14337SOL    HW244432   1.370   3.747   7.811 -0.3160 -0.0674  0.2444
14338SOL     OW44433   4.306   3.544   2.853 -0.4149 -0.2986  0.1105
14338SOL    HW144434   4.357   3.515   2.778  0.8821  1.4564  0.2373
14338SOL    HW244435   4.215   3.547   2.822 -0.3098 -2.2549 -0.5028
14339SOL     OW44436   4.635   4.750   6.863 -0.1965  0.5837 -0.2373
14339SOL    HW144437   4.594   4.701   6.934  0.2701  1.2022  0.4815
14339SOL    HW244438   4.723   4.768   6.896  0.0940  0.6988 -1.0711
14340SOL     OW44439   0.399   7.688   5.434  0.2479 -0.2887 -0.3987
14340SOL    HW144440   0.475   7.650   5.391  1.0853  1.4151 -0.5001
14340SOL    HW244441   0.403   7.782   5.413 -0.1832  0.3626  2.0723
14341SOL     OW44442   0.684   1.812   0.632 -0.4612  0.3333  0.0237
14341SOL    HW144443   0.758   1.843   0.581  0.0737 -0.1704  0.4828
14341SOL    HW244444   0.713   1.729   0.670 -1.2397  0.1468  0.2481
14342SOL     OW44445   1.006   0.540   6.235  0.1029  0.0227  0.1794
14342SOL    HW144446   1.006   0.629   6.200 -0.1363 -0.3790 -0.8638
14342SOL    HW244447   1.088   0.533   6.284  0.2621  0.7191  0.0130
14343SOL     OW44448   3.624   5.045   2.529  0.1670 -0.2869 -0.7009
14343SOL    HW144449   3.562   5.115   2.550 -0.3739 -0.3362 -2.0477
14343SOL    HW244450   3.574   4.985   2.474  1.4153 -0.2992 -1.8607
14344SOL     OW44451   1.141   2.739   5.964  0.0419  0.3534  0.0743
14344SOL    HW144452   1.083   2.722   6.038  1.9702  1.9448  2.0655
14344SOL    HW244453   1.204   2.803   5.996  0.2952  2.0477 -3.3264
14345SOL     OW44454   6.584   6.338   6.625  0.1769  0.5750 -0.0195
14345SOL    HW144455   6.679   6.332   6.615  0.3542  3.6239 -1.2378
14345SOL    HW244456   6.554   6.381   6.545 -2.3531 -0.8739  0.0615
14346SOL     OW44457   4.183   3.661   0.951  0.1847 -0.6196 -0.3700
14346SOL    HW144458   4.263   3.713   0.947 -0.4271  0.3965  0.2725
14346SOL    HW244459   4.160   3.645   0.859  1.3722 -1.3264 -0.5550
14347SOL     OW44460   5.595   2.884   1.157 -0.0304 -0.1907 -0.6171
14347SOL    HW144461   5.546   2.832   1.094 -1.7285  0.1708  0.3571
14347SOL    HW244462   5.561   2.859   1.242  0.9492  0.6356  0.0544
14348SOL     OW44463   3.959   2.807   2.845 -0.1479  0.1429 -0.1934
14348SOL    HW144464   3.960   2.764   2.760  0.1323  0.8950 -0.5838
14348SOL    HW244465   3.869   2.801   2.874 -0.1339 -0.6150 -0.2795
14349SOL     OW44466   5.597   6.239   7.594  0.4153  0.5428 -0.2856
14349SOL    HW144467   5.572   6.331   7.601  0.8963  0.5593  1.9554
14349SOL    HW244468   5.669   6.238   7.531 -0.8829  1.3946 -1.8405
14350SOL     OW44469   0.944   3.634   7.635  0.0483 -0.6199  0.3263
14350SOL    HW144470   0.892   3.584   7.698 -0.3799 -2.1546 -1.1629
14350SOL    HW244471   1.004   3.686   7.689 -0.2341 -1.9349  1.9999
14351SOL     OW44472   1.133   1.392   6.602 -0.1461 -0.1722 -0.1040
14351SOL    HW144473   1.085   1.318   6.564 -0.0652  0.3503 -1.2922
14351SOL    HW244474   1.176   1.357   6.679 -0.8452 -1.1404 -0.1423
14352SOL     OW44475   1.538   2.999   5.614 -0.5483 -0.0841  0.3091
14352SOL    HW144476   1.630   3.005   5.586 -0.9411  0.2621 -0.9837
14352SOL    HW244477   1.542   3.001   5.710  0.9340 -2.1538  0.3694
14353SOL     OW44478   0.381   2.916   7.178  0.6555 -1.0597 -0.2500
14353SOL    HW144479   0.415   3.001   7.207 -0.8090 -0.1596 -1.0305
14353SOL    HW244480   0.386   2.919   7.083  0.5495 -1.8337 -0.2864
14354SOL     OW44481   1.607   6.097   3.150  0.4324  0.2149 -0.2156
14354SOL    HW144482   1.551   6.029   3.187  0.9270 -0.9236 -1.4744
14354SOL    HW244483   1.607   6.167   3.216 -1.8263 -0.0613  0.1373
14355SOL     OW44484   5.742   4.331   4.333 -0.1162 -0.0463  0.4824
14355SOL    HW144485   5.651   4.321   4.358  0.1847 -1.2994  1.1888
14355SOL    HW244486   5.762   4.251   4.283  0.6101  0.1601  0.4288
14356SOL     OW44487   7.114   1.636   5.057 -0.6810 -0.2152 -0.7253
14356SOL    HW144488   7.021   1.614   5.062 -0.5842 -0.4220  0.4454
14356SOL    HW244489   7.159   1.554   5.075 -0.2736 -0.0790 -1.1108
14357SOL     OW44490   0.897   5.057   1.006 -0.7268 -0.1668 -0.1043
14357SOL    HW144491   0.963   4.987   1.005 -1.4478 -0.8600  0.1262
14357SOL    HW244492   0.941   5.129   1.051 -0.3189 -0.8293  0.6027
14358SOL     OW44493   6.866   3.361   1.532  0.1859 -0.1273 -0.7441
14358SOL    HW144494   6.814   3.310   1.470  0.7674  0.7682 -2.0155
14358SOL    HW244495   6.955   3.327   1.523  1.1328  2.5995 -3.4600
14359SOL     OW44496   0.381   2.111   0.037 -0.3207 -0.5519  0.7115
14359SOL    HW144497   0.348   2.199   0.019 -1.4379 -0.9144  0.9335
14359SOL    HW244498   0.477   2.121   0.036 -0.3351  1.3767  3.8693
14360SOL     OW44499   4.947   7.572   0.800  0.1873  0.3375  0.0901
14360SOL    HW144500   4.911   7.495   0.845  1.4990 -0.3243  0.0718
14360SOL    HW244501   5.035   7.545   0.774  0.9842  2.1112  0.7859
14361SOL     OW44502   5.812   3.447   2.343  0.4502  0.3324  0.2722
14361SOL    HW144503   5.836   3.459   2.435 -0.2352 -0.5834  0.5847
14361SOL    HW244504   5.891   3.472   2.295  0.8590  0.7136  1.1135
14362SOL     OW44505   2.104   5.902   3.002 -0.2542  0.3830 -0.4691
14362SOL    HW144506   2.094   5.842   2.927 -0.1157  0.3077 -0.4282
14362SOL    HW244507   2.105   5.989   2.962 -2.0279  0.4715 -0.3963
14363SOL     OW44508   7.002   0.195   5.420 -0.6721  0.2055  0.4978
14363SOL    HW144509   6.921   0.244   5.412 -0.4451  0.7972  1.6040
14363SOL    HW244510   6.982   0.124   5.480 -0.9104 -0.9246 -0.8482
14364SOL     OW44511   6.293   1.025   7.897  0.0333 -0.0898 -0.4212
14364SOL    HW144512   6.239   0.947   7.882 -1.5576  1.0481 -0.9208
14364SOL    HW244513   6.365   1.017   7.834 -0.8024 -0.5559 -1.3563
14365SOL     OW44514   4.364   6.217   5.485 -0.2406  0.0416  0.0514
14365SOL    HW144515   4.336   6.281   5.419  2.0507  0.8166 -0.2522
14365SOL    HW244516   4.457   6.236   5.499 -0.3007 -1.0957  2.4129
14366SOL     OW44517   6.589   1.031   2.306 -0.0826 -0.4128 -0.4124
14366SOL    HW144518   6.661   1.083   2.272  0.2362 -0.3146  0.3928
14366SOL    HW244519   6.511   1.084   2.290  0.1124 -0.1822 -0.5927
14367SOL     OW44520   0.424   4.630   3.143 -0.0875  0.2695  0.0571
14367SOL    HW144521   0.422   4.557   3.205 -0.0046  1.9844  2.2489
14367SOL    HW244522   0.332   4.658   3.135 -0.1672 -0.2776 -1.0588
14368SOL     OW44523   4.624   2.934   5.093  0.2707  0.4638 -0.2937
14368SOL    HW144524   4.614   3.014   5.144 -0.8585 -1.5506  2.9350
14368SOL    HW244525   4.714   2.907   5.109 -0.1924 -0.3601  1.0001
14369SOL     OW44526   7.073   3.929   4.486 -0.4976 -0.1398 -0.3174
14369SOL    HW144527   7.149   3.928   4.428 -1.2676  1.1865 -1.4215
14369SOL    HW244528   7.107   3.899   4.571  1.4900  1.3385 -0.5155
14370SOL     OW44529   2.879   7.424   3.693 -1.1354 -0.3227  0.2574
14370SOL    HW144530   2.945   7.374   3.740 -0.8845 -1.1156 -0.8912
14370SOL    HW244531   2.807   7.362   3.680 -1.6594  0.2113  0.5411
14371SOL     OW44532   5.825   2.025   5.156 -0.2379 -0.0017  0.2997
14371SOL    HW144533   5.767   2.096   5.181 -0.6930  0.4106 -1.7717
14371SOL    HW244534   5.766   1.956   5.125  0.2401 -0.9994  1.5076
14372SOL     OW44535   5.956   0.795   0.854  0.2021 -0.0316  0.0779
14372SOL    HW144536   5.912   0.826   0.934  0.8686  1.1429  0.0040
14372SOL    HW244537   5.983   0.875   0.809  0.6455 -0.7082 -0.8765
14373SOL     OW44538   4.631   7.077   7.217 -0.0576 -0.1755  0.1384
14373SOL    HW144539   4.721   7.086   7.248  0.2938 -0.4812 -0.7578
14373SOL    HW244540   4.619   7.150   7.157 -0.2710 -0.3668 -0.0529
14374SOL     OW44541   2.482   3.597   3.037 -0.3387 -1.1172 -0.2437
14374SOL    HW144542   2.404   3.575   3.087 -0.1962  0.7192  0.8852
14374SOL    HW244543   2.449   3.620   2.950 -1.2882  0.9457  0.5941
14375SOL     OW44544   6.726   5.790   0.784 -0.7176 -0.0559 -0.0360
14375SOL    HW144545   6.760   5.726   0.721 -0.4803 -0.1943  0.2314
14375SOL    HW244546   6.804   5.839   0.812 -0.4012 -1.5339  1.9265
14376SOL     OW44547   0.863   0.216   5.842 -0.3191  0.1264  0.1137
14376SOL    HW144548   0.931   0.256   5.897  0.0022 -0.7312  0.3539
14376SOL    HW244549   0.862   0.270   5.763 -0.8390  1.4329  0.9765
14377SOL     OW44550   1.903   3.417   0.847  0.9103  0.5892  0.3281
14377SOL    HW144551   1.870   3.469   0.774 -2.7191 -0.9787  0.6831
14377SOL    HW244552   1.977   3.368   0.811 -0.4108  0.2913 -2.1553
14378SOL     OW44553   7.902   7.912   6.931 -0.3435 -0.1298 -0.5066
14378SOL    HW144554   7.842   7.885   7.000 -1.6589  1.5387 -0.9400
14378SOL    HW244555   7.888   7.848   6.860 -1.0407 -0.1889 -0.3153
14379SOL     OW44556   1.650   3.695   6.749 -0.5203  0.0685 -0.0224
14379SOL    HW144557   1.600   3.745   6.685 -1.1696  1.2986  1.3763
14379SOL    HW244558   1.624   3.604   6.734 -1.9985  0.5119 -0.3765
14380SOL     OW44559   5.160   6.785   5.119 -0.2305 -0.5371  0.1783
14380SOL    HW144560   5.230   6.722   5.102  1.7774  0.7584  2.9055
14380SOL    HW244561   5.122   6.757   5.202 -0.0636  1.1152  0.8588
14381SOL     OW44562   1.293   3.862   2.205 -0.4980 -0.5482  0.0589
14381SOL    HW144563   1.247   3.838   2.286 -2.1023 -0.2898 -0.7181
14381SOL    HW244564   1.225   3.904   2.151  1.0150  1.1429 -0.6195
14382SOL     OW44565   3.892   0.567   3.687 -0.0057 -1.0179 -0.4377
14382SOL    HW144566   3.904   0.569   3.782  0.1058 -1.0082 -0.4529
14382SOL    HW244567   3.935   0.647   3.656 -0.5256 -0.7319 -0.4365
14383SOL     OW44568   6.974   3.834   5.976  0.5676  0.5899 -0.5236
14383SOL    HW144569   6.889   3.831   6.020  0.4412  0.7045 -0.7589
14383SOL    HW244570   7.022   3.758   6.011 -0.0823 -0.2004 -1.3116
14384SOL     OW44571   6.640   5.417   4.102 -0.0785 -0.2535  0.0492
14384SOL    HW144572   6.719   5.459   4.135 -1.2136 -0.0082  2.6403
14384SOL    HW244573   6.637   5.332   4.147 -0.0286 -1.3652 -1.9257
14385SOL     OW44574   3.796   7.011   0.883 -0.9823  0.1484  0.7859
14385SOL    HW144575   3.753   7.087   0.924 -1.1390  0.3321  0.2923
14385SOL    HW244576   3.890   7.025   0.900 -1.0032  0.4948  0.6404
14386SOL     OW44577   7.582   2.863   0.964 -0.3850 -0.9364 -0.6319
14386SOL    HW144578   7.494   2.898   0.975 -0.1108 -0.2362 -0.6224
14386SOL    HW244579   7.583   2.783   1.017 -0.2928  0.3088  1.3419
14387SOL     OW44580   0.659   6.188   2.973 -0.6706  0.2024  0.0720
14387SOL    HW144581   0.639   6.192   2.880 -0.9386 -0.5354  0.0931
14387SOL    HW244582   0.684   6.278   2.996 -1.2599  0.5320 -0.5523
14388SOL     OW44583   0.029   7.964   7.114  0.9185 -0.0087  0.0831
14388SOL    HW144584  -0.042   7.974   7.052  0.5491 -0.0328  0.4940
14388SOL    HW244585   0.109   7.974   7.062  0.6067  1.7750 -0.1024
14389SOL     OW44586   4.035   5.798   2.740  0.3572 -0.2902  0.4871
14389SOL    HW144587   3.946   5.765   2.747  0.6483 -0.8901  1.5644
14389SOL    HW244588   4.089   5.720   2.731  0.5405  0.1140 -4.3365
14390SOL     OW44589   4.932   1.353   0.944  0.3522  0.6322  0.4335
14390SOL    HW144590   4.845   1.338   0.909 -0.1262 -0.0540  1.8415
14390SOL    HW244591   4.973   1.266   0.944  2.0384  1.2878 -2.6096
14391SOL     OW44592   2.197   4.816   1.280 -0.3130  0.0213 -0.5865
14391SOL    HW144593   2.133   4.836   1.347  1.4909  0.9986  0.9425
14391SOL    HW244594   2.190   4.889   1.217  1.7483  2.2622  1.5494
14392SOL     OW44595   0.825   5.423   2.918  0.2632 -0.0690 -0.2392
14392SOL    HW144596   0.820   5.512   2.883  1.4442 -0.1986 -0.7768
14392SOL    HW244597   0.803   5.366   2.844  2.3078 -0.3254 -0.7043
14393SOL     OW44598   5.625   1.444   1.560 -1.0486 -0.2588 -0.0738
14393SOL    HW144599   5.602   1.447   1.653 -0.5740 -0.3118  0.0478
14393SOL    HW244600   5.714   1.481   1.557 -1.0577 -0.2767 -0.5025
14394SOL     OW44601   2.732   6.573   7.427  0.5784  0.0964 -0.0480
14394SOL    HW144602   2.679   6.520   7.368  0.7545  0.5000 -0.5676
14394SOL    HW244603   2.783   6.630   7.370 -0.5499  1.7587  0.5063
14395SOL     OW44604   0.937   5.426   4.503 -0.2803  0.1638 -0.1325
14395SOL    HW144605   0.935   5.447   4.410  1.7279 -0.9708 -0.4826
14395SOL    HW244606   0.955   5.510   4.546  1.1199  0.3362 -0.9842
14396SOL     OW44607   5.226   0.219   7.146 -0.9587 -0.0092  0.0897
14396SOL    HW144608   5.196   0.151   7.086  0.1885  0.4233 -1.0057
14396SOL    HW244609   5.146   0.266   7.171 -1.6136 -1.0200 -0.0435
14397SOL     OW44610   1.192   2.819   5.208 -0.2596  0.5153  0.0991
14397SOL    HW144611   1.197   2.727   5.185 -1.3776 -0.0579  1.9319
14397SOL    HW244612   1.276   2.839   5.249 -1.2260 -0.7215  2.9348
14398SOL     OW44613   3.257   5.006   2.939  0.3958  0.0251  0.4020
14398SOL    HW144614   3.193   4.943   2.970 -0.0507 -0.2747 -1.0495
14398SOL    HW244615   3.205   5.079   2.906  0.8261  0.1806  0.0588
14399SOL     OW44616   5.894   2.616   7.165 -0.3165 -0.1256 -0.5990
14399SOL    HW144617   5.890   2.711   7.176  0.9591  0.0184 -1.2161
14399SOL    HW244618   5.826   2.582   7.224  0.2594  1.0768  0.8214
14400SOL     OW44619   7.381   6.409   5.717  0.6239 -0.5301  0.4749
14400SOL    HW144620   7.457   6.449   5.676  0.5190  0.2726  1.0352
14400SOL    HW244621   7.314   6.477   5.715  0.6876 -0.3772  2.1410
14401SOL     OW44622   3.728   5.719   0.330  0.0360  0.1340 -0.2107
14401SOL    HW144623   3.784   5.768   0.270  1.8041 -1.5751 -0.0728
14401SOL    HW244624   3.705   5.782   0.398  1.0633  1.1426 -0.7641
14402SOL     OW44625   1.873   3.040   0.821  0.3017  0.6447  0.6861
14402SOL    HW144626   1.845   3.009   0.907  0.6621  1.6004  1.1679
14402SOL    HW244627   1.792   3.065   0.777 -0.0876 -1.5677 -0.0059
14403SOL     OW44628   7.300   4.639   7.916  0.1364  0.0886  0.4189
14403SOL    HW144629   7.217   4.654   7.871 -0.3821  0.9861  1.6155
14403SOL    HW244630   7.297   4.697   7.992  1.5102 -0.4730  0.9381
14404SOL     OW44631   5.977   1.680   4.996  0.5856  0.1427  0.4052
14404SOL    HW144632   6.017   1.764   5.021 -1.9555  1.5377  0.1304
14404SOL    HW244633   5.920   1.658   5.069  0.4017 -0.8095 -0.0152
14405SOL     OW44634   6.099   7.883   3.254 -0.5837  0.0118  0.1958
14405SOL    HW144635   6.014   7.843   3.236 -0.5377  0.4216 -1.0184
14405SOL    HW244636   6.159   7.808   3.265 -1.0054 -0.2683  0.6087
14406SOL     OW44637   7.257   0.308   1.254  0.1333  0.6352 -0.5239
14406SOL    HW144638   7.204   0.271   1.325  1.7771  0.9612  0.9336
14406SOL    HW244639   7.263   0.401   1.274  1.2917  0.5951 -0.6153
14407SOL     OW44640   7.287   5.985   5.110  0.0466 -0.1545 -0.3622
14407SOL    HW144641   7.218   6.050   5.091  0.1460 -0.2304 -1.0249
14407SOL    HW244642   7.317   6.007   5.198 -0.1253  0.5229 -0.4625
14408SOL     OW44643   6.399   7.322   1.938  0.2862  0.2853 -0.6494
14408SOL    HW144644   6.374   7.230   1.952  1.3129  0.2299  1.2097
14408SOL    HW244645   6.332   7.372   1.985  0.5151  0.4067 -0.4497
14409SOL     OW44646   1.522   0.553   8.012 -0.2595 -0.2460  0.0258
14409SOL    HW144647   1.539   0.462   7.988  0.4278  0.1121 -0.9296
14409SOL    HW244648   1.481   0.591   7.934 -0.6633  0.2246  0.4626
14410SOL     OW44649   3.397   0.457   7.617 -0.1609  0.0675 -0.1542
14410SOL    HW144650   3.321   0.477   7.670  0.2498 -2.6517  1.7082
14410SOL    HW244651   3.459   0.528   7.635 -0.3327 -0.3637  2.5046
14411SOL     OW44652   0.356   6.959   2.454  0.8941 -0.3097 -0.0544
14411SOL    HW144653   0.405   7.040   2.470  0.3020 -0.1162  0.8613
14411SOL    HW244654   0.301   6.979   2.378  2.4151 -0.6250 -1.2819
14412SOL     OW44655   4.487   4.195   7.175 -0.0493  0.1029 -0.0210
14412SOL    HW144656   4.466   4.102   7.182 -3.1978  0.5109 -2.0219
14412SOL    HW244657   4.423   4.230   7.113  2.1972  3.2879 -0.8198
14413SOL     OW44658   1.521   7.164   2.312  0.1142  0.4502  0.2793
14413SOL    HW144659   1.594   7.201   2.262 -0.0292 -0.4313 -0.6081
14413SOL    HW244660   1.511   7.075   2.279 -1.8470  0.7808 -0.1646
14414SOL     OW44661   6.210   4.035   2.714  0.0733 -0.2718 -0.0113
14414SOL    HW144662   6.196   4.125   2.684 -0.1301 -0.5650 -0.8252
14414SOL    HW244663   6.306   4.027   2.720  0.0698  0.4906  1.6737
14415SOL     OW44664   4.530   1.556   7.056 -0.3423 -0.6429  0.3037
14415SOL    HW144665   4.508   1.536   7.147 -1.8574  0.2228  0.1688
14415SOL    HW244666   4.540   1.651   7.053  0.0603 -0.6966 -0.3684
14416SOL     OW44667   0.000   4.240   5.186  0.2638  0.7336  0.4245
14416SOL    HW144668   0.007   4.298   5.110  0.4312 -0.0711 -0.1914
14416SOL    HW244669   0.019   4.296   5.261 -0.0065  1.5697 -0.1173
14417SOL     OW44670   1.441   0.531   6.028  0.0198 -0.3357  0.4299
14417SOL    HW144671   1.509   0.591   6.059  0.1400 -1.0260  1.5433
14417SOL    HW244672   1.437   0.462   6.094 -1.8717 -0.2426  0.4843
14418SOL     OW44673   6.208   6.848   2.484 -0.0689  0.2717  0.3742
14418SOL    HW144674   6.225   6.757   2.508 -0.1274 -0.2101 -1.2641
14418SOL    HW244675   6.254   6.900   2.549 -1.5176 -0.8826  2.4218
14419SOL     OW44676   6.519   0.823   4.371 -0.1803  0.2572  0.2411
14419SOL    HW144677   6.520   0.919   4.379 -0.9777  0.2076  1.2107
14419SOL    HW244678   6.607   0.796   4.397  0.9079  0.8472 -2.5134
14420SOL     OW44679   1.844   3.327   0.472  0.8945 -0.1837 -0.1089
14420SOL    HW144680   1.842   3.420   0.495  0.7774 -0.2273  0.0549
14420SOL    HW244681   1.885   3.325   0.386  1.3971 -0.0276  0.1259
14421SOL     OW44682   7.026   3.028   5.193  0.1793 -0.4500 -0.2297
14421SOL    HW144683   7.071   2.947   5.219 -0.7516 -0.9396 -0.0995
14421SOL    HW244684   7.092   3.077   5.145  1.5994 -0.0727  1.9459
14422SOL     OW44685   6.810   0.015   3.231 -0.3792  0.4051  0.7892
14422SOL    HW144686   6.827  -0.080   3.230 -2.8532 -0.0956 -0.5851
14422SOL    HW244687   6.741   0.026   3.296 -0.2320  1.2531  0.8035
14423SOL     OW44688   2.345   1.715   4.209  0.2378  0.3628 -0.3109
14423SOL    HW144689   2.440   1.722   4.202  0.1841  0.3381 -1.1038
14423SOL    HW244690   2.314   1.805   4.207  0.4039  0.6048  2.8611
14424SOL     OW44691   1.219   4.692   8.022  0.1128 -0.0403  0.5570
14424SOL    HW144692   1.208   4.784   7.998  3.4520  1.3042  3.3408
14424SOL    HW244693   1.261   4.652   7.946  1.7272  1.6564  0.4898
14425SOL     OW44694   4.214   0.088   2.570  0.5523 -0.3443  0.5816
14425SOL    HW144695   4.282   0.038   2.615  1.8283  0.5556 -0.3064
14425SOL    HW244696   4.142   0.026   2.558  2.5299 -2.3496 -1.5656
14426SOL     OW44697   4.118   7.351   3.899  0.0356 -0.0897 -0.2394
14426SOL    HW144698   4.041   7.333   3.952  1.3701 -0.7752  1.5365
14426SOL    HW244699   4.129   7.446   3.903  0.6640 -0.2104  1.5685
14427SOL     OW44700   3.205   5.042   1.532  0.2868  0.4576  0.1440
14427SOL    HW144701   3.296   5.073   1.528 -0.0133  1.5028  0.9967
14427SOL    HW244702   3.154   5.114   1.495 -0.1207 -0.5706 -1.3695
14428SOL     OW44703   1.068   6.943   7.131 -0.4353  0.2608 -0.7881
14428SOL    HW144704   0.980   6.974   7.110  0.2603  1.7858 -1.5856
14428SOL    HW244705   1.056   6.889   7.209 -2.5135 -2.1277 -2.5835
14429SOL     OW44706   5.232   3.691   1.051  0.5692  0.0165 -0.3038
14429SOL    HW144707   5.215   3.785   1.043  1.4706  0.0877 -1.7422
14429SOL    HW244708   5.166   3.660   1.113  1.9932  2.0717  2.4967
14430SOL     OW44709   5.284   3.618   6.467 -0.4866  0.3646  0.1398
14430SOL    HW144710   5.262   3.577   6.551  0.4475  0.9259  0.6756
14430SOL    HW244711   5.199   3.641   6.429 -0.9218  0.0747  0.9083
14431SOL     OW44712   7.740   3.063   1.553  0.2044 -0.0179  0.7421
14431SOL    HW144713   7.684   3.032   1.624  0.1629 -2.0100 -0.1129
14431SOL    HW244714   7.680   3.111   1.495 -0.3633 -0.9415  0.5446
14432SOL     OW44715   6.839   4.598   4.334 -0.0010  0.2568 -0.1594
14432SOL    HW144716   6.796   4.640   4.259  0.1538 -0.7372 -0.8317
14432SOL    HW244717   6.838   4.505   4.312 -1.4582 -0.2714  1.8404
14433SOL     OW44718   3.579   5.554   7.994  0.4501 -0.4347  0.0288
14433SOL    HW144719   3.540   5.548   8.081 -0.9981  0.1698 -0.5412
14433SOL    HW244720   3.662   5.600   8.008 -0.1237  0.3556  1.0064
14434SOL     OW44721   4.675   2.061   0.380 -0.0192  0.1235  0.2790
14434SOL    HW144722   4.728   2.019   0.448  0.6262  0.0160 -0.2675
14434SOL    HW244723   4.677   2.154   0.402  1.0370  0.2187 -0.1268
14435SOL     OW44724   1.361   0.151   3.816 -0.7260  0.0155 -0.3546
14435SOL    HW144725   1.368   0.244   3.794 -2.0687  0.5395  1.2180
14435SOL    HW244726   1.436   0.134   3.873 -1.7342  0.7782  1.2666
14436SOL     OW44727   4.436   6.404   3.206  0.4781  0.1898  0.0342
14436SOL    HW144728   4.379   6.401   3.129  0.0420 -1.5365  0.3972
14436SOL    HW244729   4.389   6.355   3.273  2.4206 -1.4067  0.3139
14437SOL     OW44730   5.052   0.000   4.213 -0.0278 -0.1092 -0.6341
14437SOL    HW144731   5.062  -0.048   4.295  0.9547 -0.0899 -0.7265
14437SOL    HW244732   5.142   0.019   4.186 -0.3674  0.6066 -1.2881
14438SOL     OW44733   0.888   3.941   4.679  0.1999 -0.0098 -0.1256
14438SOL    HW144734   0.868   3.894   4.598  0.5848 -2.7795  1.2515
14438SOL    HW244735   0.981   3.963   4.671 -0.0026  0.6254 -0.8265
14439SOL     OW44736   1.911   3.864   4.674  0.3347 -0.0949  0.0212
14439SOL    HW144737   1.907   3.774   4.708  1.8183  0.3397  1.4539
14439SOL    HW244738   1.853   3.863   4.598 -1.4934 -1.6644  1.3427
14440SOL     OW44739   3.844   1.590   6.223  0.0511  0.0432 -0.3504
14440SOL    HW144740   3.847   1.660   6.157 -0.1356 -0.9303 -1.4342
14440SOL    HW244741   3.838   1.636   6.307 -2.4629  1.3465 -1.1323
14441SOL     OW44742   3.554   6.990   1.482 -0.1712 -0.4970 -0.3647
14441SOL    HW144743   3.512   7.060   1.532 -0.0080 -0.0584 -0.8283
14441SOL    HW244744   3.551   6.913   1.540  0.5030  0.1320  0.5305
14442SOL     OW44745   1.399   7.879   7.261  0.2584 -0.3465  0.2887
14442SOL    HW144746   1.448   7.877   7.343  0.3462 -0.2277  0.2413
14442SOL    HW244747   1.368   7.790   7.248  0.5313 -0.4406  0.2812
14443SOL     OW44748   1.534   3.581   0.999  0.2194  0.0700 -0.1039
14443SOL    HW144749   1.553   3.505   1.054 -0.7205  1.1777  1.8405
14443SOL    HW244750   1.616   3.630   0.997  0.6571 -0.6430 -0.8904
14444SOL     OW44751   0.509   1.770   1.618  0.0225  0.1027 -0.0812
14444SOL    HW144752   0.484   1.861   1.634  1.7074  0.5452  0.2398
14444SOL    HW244753   0.538   1.737   1.703 -0.7411 -0.7997 -0.1557
14445SOL     OW44754   5.567   1.791   4.262  0.2796 -0.2966  0.4748
14445SOL    HW144755   5.526   1.871   4.294  2.5527  1.3929 -0.6065
14445SOL    HW244756   5.527   1.775   4.177 -0.7758 -0.8347  1.0520
14446SOL     OW44757   6.990   6.849   7.924  0.1793  0.4260  0.3057
14446SOL    HW144758   7.012   6.896   7.844 -2.0927  0.4783 -0.3417
14446SOL    HW244759   7.020   6.908   7.994  2.5398  0.2061 -0.4148
14447SOL     OW44760   4.191   2.019   7.127  0.1622  0.0322  0.1529
14447SOL    HW144761   4.176   2.114   7.132 -1.2253 -0.1608 -0.0524
14447SOL    HW244762   4.277   2.007   7.168  0.3241  1.3613  0.2681
14448SOL     OW44763   5.039   7.156   1.003 -0.1796  0.0618  0.1405
14448SOL    HW144764   5.021   7.130   1.093  0.2766 -0.0626  0.1964
14448SOL    HW244765   4.959   7.199   0.974 -1.5859 -2.7439 -0.4789
14449SOL     OW44766   7.735   2.215   7.931 -0.1321  0.0170 -0.3164
14449SOL    HW144767   7.673   2.255   7.992  0.2515  1.5504 -0.8938
14449SOL    HW244768   7.811   2.273   7.932  0.5431 -0.8278 -1.0175
14450SOL     OW44769   1.076   1.744   3.233  0.1433  0.2231 -0.1683
14450SOL    HW144770   1.034   1.659   3.251  2.3535 -0.8896  0.1244
14450SOL    HW244771   1.017   1.808   3.272 -1.8093 -1.1172 -0.7430
14451SOL     OW44772   6.717   0.046   6.833  0.3618 -0.0144  0.7259
14451SOL    HW144773   6.786   0.112   6.830 -0.0577  0.4399  0.8647
14451SOL    HW244774   6.759  -0.030   6.873  0.7280  0.3211  0.9934
14452SOL     OW44775   1.014   6.852   4.399  0.2726 -0.8773  0.2471
14452SOL    HW144776   1.089   6.907   4.422  0.2863 -0.4705 -0.7275
14452SOL    HW244777   0.959   6.908   4.345 -0.3278 -1.4446  0.2515
14453SOL     OW44778   1.256   7.149   7.154 -0.6844  0.4169 -0.3787
14453SOL    HW144779   1.307   7.106   7.086 -0.2708  0.9136 -0.3861
14453SOL    HW244780   1.167   7.116   7.142 -0.2231 -1.0592  0.1318
14454SOL     OW44781   2.222   7.727   1.075  0.1340  0.5066  0.2601
14454SOL    HW144782   2.154   7.667   1.046  0.7586 -0.0936  0.0199
14454SOL    HW244783   2.271   7.748   0.996  0.7049  0.3220  0.5623
14455SOL     OW44784   0.494   7.867   1.422  0.1296 -0.5377 -0.1649
14455SOL    HW144785   0.511   7.957   1.396  0.0297 -0.2838  0.6280
14455SOL    HW244786   0.548   7.854   1.499 -1.2252 -0.5685  0.8110
14456SOL     OW44787   6.927   7.201   7.336  0.1580  0.4187 -0.0166
14456SOL    HW144788   6.879   7.119   7.323  0.1244  0.4212  0.0924
14456SOL    HW244789   6.868   7.255   7.389  0.5727  0.1544  0.7333
14457SOL     OW44790   4.048   3.953   0.804 -0.2189  0.5393 -0.3454
14457SOL    HW144791   3.968   3.915   0.768  0.1826  0.0538 -0.7271
14457SOL    HW244792   4.017   4.015   0.871 -0.8657 -1.3580  1.2168
14458SOL     OW44793   2.529   6.349   3.533  0.0785  0.0547  0.2764
14458SOL    HW144794   2.519   6.329   3.626 -0.7829 -0.6045  0.0517
14458SOL    HW244795   2.499   6.270   3.488  3.9829 -1.1838 -0.5564
14459SOL     OW44796   6.735   0.186   5.347  0.0299 -0.1898  0.0222
14459SOL    HW144797   6.678   0.226   5.413  1.7078 -0.1232  1.5012
14459SOL    HW244798   6.678   0.124   5.301 -0.9358 -1.1605  2.3598
14460SOL     OW44799   2.969   2.855   3.639 -0.0587 -0.0544 -0.3042
14460SOL    HW144800   2.978   2.897   3.725  0.9463  0.4735 -0.6477
14460SOL    HW244801   2.968   2.928   3.577 -2.6024 -0.3027 -0.6601
14461SOL     OW44802   2.132   1.962   7.108 -0.0212 -0.3173  0.0535
14461SOL    HW144803   2.153   2.036   7.166  0.1116 -0.2323 -0.0992
14461SOL    HW244804   2.037   1.954   7.112 -0.1081  0.3489 -0.5122
14462SOL     OW44805   0.682   6.844   6.051  0.1792  0.8399 -0.0075
14462SOL    HW144806   0.770   6.828   6.087  0.6179  1.7005 -0.6625
14462SOL    HW244807   0.676   6.939   6.047 -1.8816  0.9442  2.6523
14463SOL     OW44808   6.379   1.621   4.430 -0.2544 -0.5627 -0.4750
14463SOL    HW144809   6.304   1.645   4.486 -0.1055 -0.6379 -0.2406
14463SOL    HW244810   6.371   1.678   4.354 -0.5607 -0.5787 -0.4565
14464SOL     OW44811   7.339   4.653   4.434  0.1639 -0.1874 -0.1079
14464SOL    HW144812   7.406   4.598   4.475  0.3554  0.5909  0.6491
14464SOL    HW244813   7.258   4.629   4.478  0.2423  0.1142  0.2016
14465SOL     OW44814   6.983   5.289   5.833  0.2403 -0.6601 -0.8923
14465SOL    HW144815   6.905   5.234   5.820  0.3213 -0.6100 -1.6406
14465SOL    HW244816   7.023   5.295   5.747 -0.3690  1.4903 -1.0872
14466SOL     OW44817   7.155   1.082   4.072 -0.0927 -0.2344 -0.2463
14466SOL    HW144818   7.208   1.006   4.046  0.5285 -0.0873  0.5594
14466SOL    HW244819   7.141   1.130   3.990  0.6482 -0.5124 -0.5514
14467SOL     OW44820   0.214   0.984   5.948 -0.3170  1.6518  0.2273
14467SOL    HW144821   0.168   1.057   5.989 -1.1589  0.9155  0.6241
14467SOL    HW244822   0.253   1.022   5.869 -0.3442  2.6317  0.6653
14468SOL     OW44823   6.264   5.648   1.462 -0.3295  0.1668  0.1523
14468SOL    HW144824   6.217   5.732   1.462 -1.7724 -0.5965  0.3313
14468SOL    HW244825   6.356   5.671   1.465 -0.7231  1.7511  1.1882
14469SOL     OW44826   6.218   2.455   0.536 -0.0311  0.0691 -0.0364
14469SOL    HW144827   6.139   2.509   0.533 -1.6034 -2.1347 -0.8527
14469SOL    HW244828   6.273   2.496   0.603 -1.2733  2.3962 -0.3305
14470SOL     OW44829   7.874   0.520   1.530  0.5156 -0.0071  0.1271
14470SOL    HW144830   7.816   0.455   1.572  1.1910  0.2739  1.5521
14470SOL    HW244831   7.830   0.541   1.448 -0.4635 -1.1778  0.3127
14471SOL     OW44832   2.315   8.036   6.539  0.2380  0.2689 -0.4363
14471SOL    HW144833   2.397   7.988   6.553  0.1209  0.4693  1.1742
14471SOL    HW244834   2.337   8.105   6.476  1.5308  0.8358  0.5932
14472SOL     OW44835   5.808   0.332   2.417 -0.0499 -0.4483 -0.3909
14472SOL    HW144836   5.875   0.382   2.464  0.4431 -1.7017  0.2960
14472SOL    HW244837   5.847   0.245   2.406 -0.2850 -0.3121 -2.8499
14473SOL     OW44838   6.973   1.437   7.787 -0.1712 -0.8259  0.0454
14473SOL    HW144839   6.949   1.353   7.825  2.0819 -2.1553 -1.2111
14473SOL    HW244840   7.068   1.442   7.800  0.2600 -0.0328 -2.7197
14474SOL     OW44841   5.531   7.589   7.827  0.0608  0.2989 -0.2888
14474SOL    HW144842   5.533   7.645   7.905  0.5747 -1.2482  0.8655
14474SOL    HW244843   5.619   7.551   7.822 -0.3205 -0.5334 -0.9256
14475SOL     OW44844   6.307   2.734   5.155  0.2523 -0.7768 -0.0543
14475SOL    HW144845   6.243   2.672   5.120 -0.1867 -1.0828  1.2544
14475SOL    HW244846   6.333   2.697   5.239  0.5499  0.4373  0.4046
14476SOL     OW44847   4.219   5.108   3.131  0.2647  0.3643  0.4688
14476SOL    HW144848   4.256   5.160   3.202 -1.7979  1.2164  0.9962
14476SOL    HW244849   4.141   5.157   3.103  0.0371 -0.8441 -1.1978
14477SOL     OW44850   5.587   7.990   2.417  0.4353 -0.5271 -0.6989
14477SOL    HW144851   5.565   8.080   2.439 -1.9718 -0.8265 -1.6676
14477SOL    HW244852   5.644   7.997   2.340 -0.8726  0.1529 -1.6315
14478SOL     OW44853   2.299   1.913   1.735 -0.0617  0.2683 -0.2786
14478SOL    HW144854   2.343   1.990   1.771  0.5170 -0.5410  0.8031
14478SOL    HW244855   2.259   1.870   1.811 -2.9136  1.0299 -1.2158
14479SOL     OW44856   7.583   7.408   1.030  0.2074  0.2662 -0.3564
14479SOL    HW144857   7.630   7.487   1.058  1.3853 -0.3433 -0.5681
14479SOL    HW244858   7.629   7.336   1.072 -0.7856 -0.3267 -0.2654
14480SOL     OW44859   1.472   6.861   1.953 -0.0987 -0.8764  0.2149
14480SOL    HW144860   1.433   6.847   2.039  0.1408 -0.4966  0.3913
14480SOL    HW244861   1.435   6.793   1.898  1.2860 -2.4201  1.1083
14481SOL     OW44862   2.729   6.403   5.302  0.6178  0.0023  0.2958
14481SOL    HW144863   2.682   6.344   5.243  0.0242  0.3453  0.4167
14481SOL    HW244864   2.679   6.401   5.384  0.9740  0.1521  0.5225
14482SOL     OW44865   4.297   3.584   5.788 -0.9800 -0.0244  0.1207
14482SOL    HW144866   4.378   3.630   5.767 -0.6838  0.9912  2.9457
14482SOL    HW244867   4.256   3.565   5.704  1.3913  0.8979 -1.3122
14483SOL     OW44868   4.426   5.756   4.203 -0.1498  0.1079 -0.9535
14483SOL    HW144869   4.408   5.806   4.123 -0.7795  1.3807 -0.0494
14483SOL    HW244870   4.423   5.664   4.175  0.1581  0.5324 -2.4820
14484SOL     OW44871   4.073   0.499   7.906  0.2314  0.5116 -0.4639
14484SOL    HW144872   4.003   0.452   7.860 -0.3682 -0.3905  1.2797
14484SOL    HW244873   4.153   0.477   7.858 -0.3887 -0.2294 -1.1882
14485SOL     OW44874   3.081   7.385   1.025 -0.4947 -0.7845 -0.5873
14485SOL    HW144875   3.168   7.422   1.039 -0.3228 -0.6270 -1.9883
14485SOL    HW244876   3.043   7.379   1.113 -0.7427  3.1492 -0.2452
14486SOL     OW44877   7.815   7.317   2.687  0.4154 -0.5409 -0.0351
14486SOL    HW144878   7.862   7.362   2.756  1.6102 -0.4595 -0.8635
14486SOL    HW244879   7.725   7.349   2.693  0.6246 -0.1403  1.1184
14487SOL     OW44880   0.748   7.562   4.816 -0.6902  0.2815  0.5286
14487SOL    HW144881   0.704   7.539   4.897  1.1376 -1.9864  1.0001
14487SOL    HW244882   0.778   7.652   4.829 -0.3930 -0.0616  2.3989
14488SOL     OW44883   5.416   2.613   3.764  0.0797 -0.2971  0.3442
14488SOL    HW144884   5.477   2.556   3.717 -0.5540  1.0804 -2.3338
14488SOL    HW244885   5.342   2.623   3.705 -0.7669  1.5947  1.6324
14489SOL     OW44886   3.378   3.310   7.464  0.6463  0.1236 -0.6839
14489SOL    HW144887   3.301   3.339   7.513 -0.5109 -1.7482 -1.2638
14489SOL    HW244888   3.415   3.240   7.518  1.9482  0.9738 -0.4339
14490SOL     OW44889   0.805   1.994   3.608 -0.1885 -0.0148  0.3074
14490SOL    HW144890   0.859   2.072   3.595  1.0708 -0.6028  1.7529
14490SOL    HW244891   0.715   2.028   3.611  0.3263  1.3716  0.8657
14491SOL     OW44892   0.123   4.818   0.376 -0.0233 -0.4523  0.5379
14491SOL    HW144893   0.199   4.765   0.350 -0.2648 -1.3565  1.5821
14491SOL    HW244894   0.129   4.823   0.471  0.6581  2.4811  0.4436
14492SOL     OW44895   2.850   2.482   3.823 -0.3829  0.0429  0.1190
14492SOL    HW144896   2.802   2.519   3.749  0.9564 -1.9502 -1.8785
14492SOL    HW244897   2.808   2.397   3.837 -0.4330  0.2785  1.5039
14493SOL     OW44898   4.281   1.708   5.334 -0.2222 -0.2177 -0.0473
14493SOL    HW144899   4.268   1.763   5.412 -0.8341 -0.2922 -0.0899
14493SOL    HW244900   4.349   1.647   5.359  1.7792  1.6642 -0.5799
14494SOL     OW44901   6.330   6.022   0.688  0.2137 -0.1916  0.1794
14494SOL    HW144902   6.284   6.032   0.771 -0.3604 -0.0853 -0.1433
14494SOL    HW244903   6.363   5.932   0.689 -0.3113 -0.3896  0.2690
14495SOL     OW44904   2.125   2.155   6.292  0.0739 -0.5547 -0.1322
14495SOL    HW144905   2.105   2.088   6.226  0.9317 -0.4239 -0.5367
14495SOL    HW244906   2.208   2.193   6.264 -0.4233  0.7250  0.0630
14496SOL     OW44907   5.483   5.628   6.503  0.1888  0.3321 -0.3271
14496SOL    HW144908   5.436   5.711   6.513  0.5458  0.3315  1.7813
14496SOL    HW244909   5.574   5.654   6.491  0.3617  0.2732  0.7427
14497SOL     OW44910   1.654   5.027   2.268  0.3451  0.5161 -0.5593
14497SOL    HW144911   1.695   4.975   2.198  0.3219  0.9800 -0.9218
14497SOL    HW244912   1.584   4.971   2.301  0.1216  0.4345 -1.1574
14498SOL     OW44913   0.254   2.209   1.057  0.0715  0.1959 -0.2133
14498SOL    HW144914   0.270   2.182   0.966 -2.7435 -2.9661  0.0693
14498SOL    HW244915   0.174   2.260   1.053  0.4857  0.9083  0.4115
14499SOL     OW44916   2.990   2.469   1.390 -0.2989 -0.5560  0.1614
14499SOL    HW144917   3.066   2.434   1.343  0.2051  0.0594  0.4993
14499SOL    HW244918   2.972   2.553   1.347  0.4551  0.2336  1.3424
14500SOL     OW44919   6.601   0.648   0.242  0.1214  0.0452 -0.2612
14500SOL    HW144920   6.578   0.566   0.287  0.9754 -0.4525 -0.7058
14500SOL    HW244921   6.602   0.624   0.149  0.8584  0.4402 -0.3569
14501SOL     OW44922   8.031   1.927   4.402  0.1155 -0.1735  0.2310
14501SOL    HW144923   7.950   1.933   4.453 -0.0805  0.2736 -0.1250
14501SOL    HW244924   8.083   2.003   4.431 -0.5623  0.8727 -1.1902
14502SOL     OW44925   5.184   2.038   7.419  0.9036  0.0237  0.8150
14502SOL    HW144926   5.136   1.961   7.390 -0.1927  0.4742  1.3877
14502SOL    HW244927   5.186   2.095   7.342  2.6236 -0.9598  0.0618
14503SOL     OW44928   4.635   7.035   1.346  0.2158 -0.6964  0.1775
14503SOL    HW144929   4.573   6.969   1.375 -0.7342  0.9627  2.1362
14503SOL    HW244930   4.583   7.115   1.336  1.8952  0.6100  1.3528
14504SOL     OW44931   4.716   6.772   6.780  0.0379  0.7770 -0.1701
14504SOL    HW144932   4.746   6.791   6.869 -0.2248 -0.9364  0.3199
14504SOL    HW244933   4.765   6.694   6.755 -0.5786  0.7018 -1.1830
14505SOL     OW44934   7.242   0.282   0.817 -0.2257 -0.0218  0.0960
14505SOL    HW144935   7.336   0.272   0.827 -0.4547 -1.1341  1.4679
14505SOL    HW244936   7.212   0.316   0.901 -0.8155  2.5261 -1.0552
14506SOL     OW44937   5.624   1.224   3.800 -0.0468 -0.1458  1.1210
14506SOL    HW144938   5.707   1.239   3.846  0.5080 -1.3353  0.5737
14506SOL    HW244939   5.574   1.166   3.858  1.1231 -2.6067 -0.1440
14507SOL     OW44940   6.624   0.502   0.003  0.3078  0.3000 -0.1199
14507SOL    HW144941   6.696   0.489  -0.059  0.0037  1.6308 -0.7999
14507SOL    HW244942   6.563   0.430  -0.016  0.1963  0.7024 -1.4391
14508SOL     OW44943   5.571   3.695   1.583  0.0588 -0.1291  0.8384
14508SOL    HW144944   5.590   3.603   1.603 -1.3225 -0.0907  2.5865
14508SOL    HW244945   5.610   3.709   1.497  0.2985 -2.3541  0.5125
14509SOL     OW44946   3.005   7.829   1.690 -0.1167 -0.1901  0.3712
14509SOL    HW144947   3.029   7.834   1.783 -0.8349 -0.1999  0.5602
14509SOL    HW244948   2.910   7.836   1.689  0.0038  2.5114 -0.5513
14510SOL     OW44949   4.330   3.814   0.310  0.6957  0.2733 -0.5832
14510SOL    HW144950   4.336   3.875   0.383 -2.3704 -1.1670  1.0682
14510SOL    HW244951   4.398   3.749   0.327  1.2615  0.9919 -0.0644
14511SOL     OW44952   7.835   4.222   2.460 -0.6580 -0.4229  0.4035
14511SOL    HW144953   7.756   4.171   2.446 -1.3605  0.5111  0.8172
14511SOL    HW244954   7.897   4.161   2.500 -0.8555 -1.3911 -0.7178
14512SOL     OW44955   0.868   5.811   6.696  0.4122 -0.3742  0.6444
14512SOL    HW144956   0.779   5.806   6.732  0.2410  0.5876  0.3710
14512SOL    HW244957   0.883   5.724   6.658 -0.7484 -0.2779 -0.0869
14513SOL     OW44958   2.504   1.489   3.728  0.2743  0.1995  0.4601
14513SOL    HW144959   2.584   1.527   3.691  0.1313  1.5670  1.4691
14513SOL    HW244960   2.478   1.423   3.664  2.6914 -0.9361  0.5296
14514SOL     OW44961   4.013   7.122   0.440  0.0940 -0.3189  0.6234
14514SOL    HW144962   3.980   7.205   0.475 -2.4676 -1.8703  2.2889
14514SOL    HW244963   3.934   7.078   0.407  1.3567 -2.1684 -0.0569
14515SOL     OW44964   0.082   4.340   3.059  0.1269  0.0956  0.8106
14515SOL    HW144965   0.133   4.260   3.063 -1.8397 -1.1993  1.5030
14515SOL    HW244966  -0.007   4.313   3.083 -1.3615  1.8504 -2.1572
14516SOL     OW44967   0.192   3.535   6.964  0.5242 -0.3456 -0.0408
14516SOL    HW144968   0.213   3.622   6.930 -1.9958  0.7189  0.8822
14516SOL    HW244969   0.160   3.487   6.888  2.9922 -0.9551 -0.8009
14517SOL     OW44970   8.031   0.812   0.615 -0.8422 -0.1119 -0.5267
14517SOL    HW144971   7.949   0.844   0.577 -0.3944 -0.3814 -1.7655
14517SOL    HW244972   8.087   0.793   0.540  1.4253  2.7389  0.2633
14518SOL     OW44973   1.952   1.354   2.832  0.3813 -0.3017 -0.8934
14518SOL    HW144974   1.984   1.266   2.812 -0.3810 -1.0602  1.0232
14518SOL    HW244975   1.861   1.354   2.801  0.3408 -0.2468 -0.7771
14519SOL     OW44976   3.760   3.823   1.041 -0.0733  0.2744 -0.4569
14519SOL    HW144977   3.696   3.760   1.008 -1.2999  0.5837  1.1895
14519SOL    HW244978   3.731   3.907   1.007  0.4634  0.2059 -1.0996
14520SOL     OW44979   7.319   0.453   1.730  0.2462  0.5298  0.4427
14520SOL    HW144980   7.389   0.486   1.673 -0.3356 -0.2566 -0.7718
14520SOL    HW244981   7.294   0.528   1.784  1.0067  1.2240 -0.1447
14521SOL     OW44982   7.087   0.469   1.042 -0.0147  0.1928 -0.0763
14521SOL    HW144983   7.180   0.492   1.037  0.1258 -0.4994 -0.7747
14521SOL    HW244984   7.047   0.516   0.968 -0.3412  0.9956  0.5937
14522SOL     OW44985   7.592   7.821   0.493 -0.5735  0.4593  0.4262
14522SOL    HW144986   7.524   7.875   0.532  0.1084  1.7387 -0.1098
14522SOL    HW244987   7.663   7.821   0.558  0.5590  2.5813 -0.6909
14523SOL     OW44988   0.521   7.511   1.535  0.1242 -0.1273 -0.2303
14523SOL    HW144989   0.489   7.483   1.450  0.6310 -0.1353 -0.4222
14523SOL    HW244990   0.603   7.556   1.516 -1.2203  2.6481 -0.0961
14524SOL     OW44991   7.010   5.296   4.860 -0.2554  0.4229  0.6595
14524SOL    HW144992   7.078   5.352   4.823  1.1850 -0.2371  2.2089
14524SOL    HW244993   6.975   5.248   4.784  1.5515  0.2059 -0.0825
14525SOL     OW44994   1.214   6.822   6.026 -0.8515  0.6413  0.0408
14525SOL    HW144995   1.207   6.904   5.978  1.3319  0.8045 -0.1295
14525SOL    HW244996   1.218   6.755   5.957 -2.9835  0.3124  0.1863
14526SOL     OW44997   2.526   0.622   6.721 -0.5086 -0.3364 -0.5812
14526SOL    HW144998   2.598   0.561   6.737 -0.2350  0.0586 -0.2984
14526SOL    HW244999   2.470   0.614   6.798 -1.2781 -1.3377 -1.2169
14527SOL     OW45000   4.820   2.075   7.361  0.4990  0.0074 -0.1153
14527SOL    HW145001   4.744   2.024   7.391 -1.4006  3.1767  0.9358
14527SOL    HW245002   4.807   2.084   7.267  0.5615 -0.9156 -0.2243
14528SOL     OW45003   4.827   6.992   2.836  0.3967 -0.2540 -0.4880
14528SOL    HW145004   4.886   7.001   2.761 -0.8958 -1.0260 -1.6447
14528SOL    HW245005   4.768   7.068   2.829 -0.1108 -0.6545 -0.6190
14529SOL     OW45006   5.637   3.221   2.841  0.4298  0.2159 -0.6187
14529SOL    HW145007   5.557   3.234   2.789  1.2296  1.1972 -1.6354
14529SOL    HW245008   5.685   3.152   2.796 -0.2761 -1.0937  0.5569
14530SOL     OW45009   2.831   3.870   2.329  0.0310 -0.2278 -0.0932
14530SOL    HW145010   2.882   3.831   2.258  1.1032  0.6157  0.1726
14530SOL    HW245011   2.797   3.796   2.378 -1.5824 -0.8664 -2.0227
14531SOL     OW45012   3.685   0.715   7.369 -0.3291 -0.4528 -0.1813
14531SOL    HW145013   3.760   0.753   7.415  0.2345  0.0281 -1.4314
14531SOL    HW245014   3.611   0.770   7.393 -0.0753 -0.2956  0.2514
14532SOL     OW45015   3.200   1.198   7.743 -0.4689  0.0646  0.2233
14532SOL    HW145016   3.174   1.230   7.656 -0.3927  0.6506  0.4089
14532SOL    HW245017   3.274   1.254   7.768  0.7167 -1.3124 -0.1140
14533SOL     OW45018   0.666   2.151   5.867 -0.0150  0.5903  0.1373
14533SOL    HW145019   0.753   2.139   5.905  0.9649 -1.3227 -2.4117
14533SOL    HW245020   0.676   2.227   5.809 -0.0446  0.3824 -0.1411
14534SOL     OW45021   1.668   5.397   3.521  0.0817  0.1445 -0.3682
14534SOL    HW145022   1.671   5.477   3.574 -2.5204  0.7520 -1.0090
14534SOL    HW245023   1.707   5.422   3.438  0.6759  0.3062 -0.0443
14535SOL     OW45024   5.638   7.018   2.690  0.2825 -0.1827 -0.4842
14535SOL    HW145025   5.560   6.995   2.640  0.6829  0.2902 -1.3475
14535SOL    HW245026   5.710   6.978   2.642  0.6936  0.4234 -0.3869
14536SOL     OW45027   6.116   7.242   6.767  0.3642  0.0163 -0.0309
14536SOL    HW145028   6.060   7.277   6.836  1.1141  2.2268 -0.4550
14536SOL    HW245029   6.130   7.150   6.792 -3.3759 -0.7017  0.0661
14537SOL     OW45030   2.898   6.321   3.829 -0.1093  0.1462  0.5917
14537SOL    HW145031   2.927   6.377   3.758 -0.6339 -0.8160 -0.4196
14537SOL    HW245032   2.860   6.381   3.893 -1.7560  0.9107 -0.9822
14538SOL     OW45033   5.797   4.327   0.519 -0.8365  0.6934 -0.0141
14538SOL    HW145034   5.816   4.412   0.480 -0.1228 -0.3786 -2.1957
14538SOL    HW245035   5.871   4.272   0.495 -1.7356 -0.8148  0.4816
14539SOL     OW45036   1.369   7.451   0.019  0.1788  0.5988 -0.7629
14539SOL    HW145037   1.387   7.358   0.001 -2.9223 -0.0653 -0.9285
14539SOL    HW245038   1.309   7.478  -0.051  0.9233  2.7378 -0.6499
14540SOL     OW45039   0.750   7.996   7.577  0.0527  0.4526 -0.4124
14540SOL    HW145040   0.732   8.038   7.661  0.7490 -0.7821  0.3782
14540SOL    HW245041   0.802   7.919   7.599  0.7915  0.4459 -2.0385
14541SOL     OW45042   3.074   3.341   5.099 -0.0881 -0.4063 -0.6096
14541SOL    HW145043   3.150   3.285   5.085 -0.3494 -0.7515 -0.6714
14541SOL    HW245044   3.011   3.286   5.145  0.0270  0.1411  0.2281
14542SOL     OW45045   4.482   3.961   0.498  0.1162  0.3179 -0.4375
14542SOL    HW145046   4.561   4.010   0.475  1.1166 -0.5774  0.9354
14542SOL    HW245047   4.434   4.019   0.557 -0.4649  0.9979 -1.5322
14543SOL     OW45048   1.439   8.022   5.185  0.0027  0.2445 -0.7175
14543SOL    HW145049   1.518   8.010   5.239 -0.4228  0.8024  0.0497
14543SOL    HW245050   1.436   8.117   5.169 -1.0075  0.3619  0.0511
14544SOL     OW45051   7.741   7.173   3.856  0.1029 -0.0876  0.2218
14544SOL    HW145052   7.798   7.232   3.808 -0.9694  1.3017  0.5922
14544SOL    HW245053   7.705   7.225   3.927 -0.7023 -1.2487  0.7117
14545SOL     OW45054   2.487   7.132   2.779  0.2215 -0.4949  0.1813
14545SOL    HW145055   2.504   7.060   2.839  2.7434 -0.9401 -0.9285
14545SOL    HW245056   2.486   7.210   2.834 -1.3612 -1.2144  1.2391
14546SOL     OW45057   3.814   1.623   3.448  0.3878  0.2814  0.5871
14546SOL    HW145058   3.877   1.555   3.421  1.0339  0.4362  1.6428
14546SOL    HW245059   3.853   1.705   3.417  0.6363  0.3590  1.0853
14547SOL     OW45060   1.014   4.984   1.841 -0.1873 -0.0867  0.3689
14547SOL    HW145061   0.948   5.006   1.775 -0.0637 -1.5800 -0.3064
14547SOL    HW245062   0.991   4.895   1.868 -0.4082  0.5712  2.5924
14548SOL     OW45063   6.027   1.760   4.743  0.0843 -0.4114  0.8835
14548SOL    HW145064   5.981   1.844   4.752  1.0545  0.0509  1.7395
14548SOL    HW245065   6.021   1.720   4.829  0.0602 -1.0091  0.6074
14549SOL     OW45066   0.907   6.831   0.482  0.3029 -0.3275  0.3934
14549SOL    HW145067   0.823   6.789   0.502  0.2861 -0.2299  0.5343
14549SOL    HW245068   0.972   6.771   0.518  0.3098 -0.6006 -0.0759
14550SOL     OW45069   1.116   7.339   7.742  0.1527  0.3205  0.5646
14550SOL    HW145070   1.152   7.258   7.778 -1.0152  0.1457  1.3878
14550SOL    HW245071   1.158   7.348   7.657  1.2169 -0.5022  0.9768
14551SOL     OW45072   3.610   7.934   6.304 -0.9245  0.0322 -0.0095
14551SOL    HW145073   3.524   7.967   6.329 -1.5624 -1.6335  0.1439
14551SOL    HW245074   3.592   7.853   6.256  0.5696 -0.8823  0.8774
14552SOL     OW45075   7.513   5.463   3.310 -0.6418  0.7084  0.0666
14552SOL    HW145076   7.589   5.465   3.368 -0.5781  1.2696 -0.0322
14552SOL    HW245077   7.476   5.375   3.321  0.7210 -0.0076 -0.8015
14553SOL     OW45078   7.705   5.811   2.927 -0.0063  0.3982 -0.0263
14553SOL    HW145079   7.657   5.856   2.997 -0.2758 -0.5525  0.4258
14553SOL    HW245080   7.699   5.718   2.950 -1.9314 -0.1772 -2.4321
14554SOL     OW45081   2.265   5.868   7.663 -0.7512  0.1042 -0.0168
14554SOL    HW145082   2.329   5.891   7.595 -0.7425 -1.2534 -0.5106
14554SOL    HW245083   2.318   5.853   7.741 -0.2778 -2.1274 -0.7024
14555SOL     OW45084   2.762   7.991   2.340 -0.4904  0.2302  0.4050
14555SOL    HW145085   2.778   7.963   2.250 -0.6852 -1.2811  0.8063
14555SOL    HW245086   2.671   8.021   2.339 -1.3420 -2.1144  0.5713
14556SOL     OW45087   3.263   4.397   6.422  0.0624 -0.1297 -0.2524
14556SOL    HW145088   3.339   4.454   6.416  0.2839 -0.2757  0.9118
14556SOL    HW245089   3.197   4.438   6.366  0.4000  0.9861  0.1384
14557SOL     OW45090   6.323   5.719   6.921  0.7882 -0.7207  0.5402
14557SOL    HW145091   6.234   5.747   6.900  0.4457 -1.0980  1.4435
14557SOL    HW245092   6.379   5.784   6.878  0.0516  0.1934  0.9293
14558SOL     OW45093   4.074   3.446   5.427 -0.4822 -0.2112 -0.5716
14558SOL    HW145094   4.092   3.540   5.434  0.7477 -0.4600 -0.1387
14558SOL    HW245095   4.031   3.424   5.510 -0.8517 -0.0116 -0.7103
14559SOL     OW45096   7.534   3.097   7.008  0.3828 -0.4300 -0.2209
14559SOL    HW145097   7.582   3.150   7.071 -1.6028  1.8273 -0.5074
14559SOL    HW245098   7.579   3.112   6.925  0.2353  0.3028 -0.1746
14560SOL     OW45099   6.947   7.512   7.898 -0.0644  0.4477 -0.2300
14560SOL    HW145100   7.033   7.543   7.869 -0.8947  1.2885 -1.8973
14560SOL    HW245101   6.905   7.589   7.937  0.1836 -0.1441  1.2982
14561SOL     OW45102   2.371   2.130   6.900 -0.1667  0.7833 -0.6585
14561SOL    HW145103   2.430   2.177   6.840  1.1561 -0.1090 -0.1027
14561SOL    HW245104   2.359   2.044   6.859 -0.0224  0.5031 -0.1257
14562SOL     OW45105   3.149   1.834   1.080 -0.0479  0.3472  0.0148
14562SOL    HW145106   3.152   1.854   0.987 -2.0809 -0.9962 -0.4037
14562SOL    HW245107   3.163   1.919   1.123  2.0937  0.8151 -1.4150
14563SOL     OW45108   4.068   1.994   0.643 -0.4272  0.0558  0.3435
14563SOL    HW145109   4.164   1.996   0.650 -0.4692  1.4900  0.7101
14563SOL    HW245110   4.044   2.083   0.617 -1.7852  0.1652  1.8753
14564SOL     OW45111   3.806   1.540   0.582 -0.6085  0.1979 -0.7547
14564SOL    HW145112   3.866   1.613   0.566  0.2826 -0.4427 -0.4015
14564SOL    HW245113   3.825   1.512   0.672 -1.9941  0.4801 -0.3425
14565SOL     OW45114   1.504   2.996   5.894  0.6520 -0.7306  0.1193
14565SOL    HW145115   1.531   2.910   5.925  1.7409 -0.7443 -0.7931
14565SOL    HW245116   1.487   3.047   5.973  1.8003 -1.2242  0.6934
14566SOL     OW45117   7.230   3.285   3.937 -0.0070 -0.0595 -0.2201
14566SOL    HW145118   7.194   3.201   3.966 -1.1093  0.6260  0.4599
14566SOL    HW245119   7.210   3.289   3.844 -0.4689 -0.2916 -0.1320
14567SOL     OW45120   6.357   0.701   4.164 -0.2768  0.5785  0.4637
14567SOL    HW145121   6.398   0.754   4.233  2.2259  0.5621 -0.9100
14567SOL    HW245122   6.387   0.612   4.180 -2.7156 -0.1702  1.4567
14568SOL     OW45123   2.548   2.800   3.167  0.1609  0.5028 -0.2089
14568SOL    HW145124   2.604   2.734   3.209 -3.4903 -1.5455  1.9455
14568SOL    HW245125   2.489   2.749   3.111 -0.7515  2.3472 -0.9958
14569SOL     OW45126   2.290   0.040   4.048 -0.0356  0.8060  0.4343
14569SOL    HW145127   2.334   0.122   4.070  1.0525  0.6582 -1.0191
14569SOL    HW245128   2.345  -0.028   4.089  1.0222  0.6380 -1.1614
14570SOL     OW45129   5.007   1.277   4.791 -0.3364  0.4076  0.2859
14570SOL    HW145130   4.977   1.232   4.870 -1.5105  2.8736  1.3687
14570SOL    HW245131   4.986   1.218   4.719 -1.0186 -1.0899  1.6588
14571SOL     OW45132   0.359   4.663   0.306 -0.5713  0.0005 -0.2321
14571SOL    HW145133   0.389   4.607   0.234  1.1347  0.7540 -0.1347
14571SOL    HW245134   0.384   4.615   0.385  0.2529  0.5636 -0.1489
14572SOL     OW45135   4.454   5.447   1.093 -0.1948 -0.1175  0.1342
14572SOL    HW145136   4.448   5.358   1.058 -0.1717  0.1223 -0.4939
14572SOL    HW245137   4.389   5.496   1.044  1.1203  0.6483 -0.9226
14573SOL     OW45138   0.222   4.149   7.386  0.5710 -0.4207  0.4137
14573SOL    HW145139   0.235   4.243   7.387 -0.6905 -0.2189  0.2596
14573SOL    HW245140   0.203   4.128   7.295  0.1152 -0.6984  0.5643
14574SOL     OW45141   3.625   3.970   4.725  0.4408  0.2497  0.3331
14574SOL    HW145142   3.645   3.891   4.774  0.6851  0.1238  0.0352
14574SOL    HW245143   3.698   3.980   4.664  0.1851  0.4508  0.0539
14575SOL     OW45144   0.739   3.730   8.019 -0.3601 -0.0479 -0.1187
14575SOL    HW145145   0.718   3.769   7.934  1.5162  2.2074  0.3749
14575SOL    HW245146   0.834   3.717   8.016 -0.5043 -1.5905  1.0142
14576SOL     OW45147   2.268   3.828   4.406  0.6262 -0.4222 -0.4207
14576SOL    HW145148   2.286   3.834   4.500 -2.3744 -0.7263  0.2785
14576SOL    HW245149   2.296   3.912   4.371  2.2374 -0.4831  0.6148
14577SOL     OW45150   4.326   2.995   2.366 -0.1875 -0.0877  0.0171
14577SOL    HW145151   4.396   3.050   2.400  0.4860 -1.9481  1.9131
14577SOL    HW245152   4.278   2.967   2.445  0.8518 -3.8647 -0.5025
14578SOL     OW45153   6.803   5.305   3.372  0.0592 -0.0189  0.3121
14578SOL    HW145154   6.729   5.244   3.376 -1.1607  1.3528 -0.3093
14578SOL    HW245155   6.776   5.377   3.429  1.6864 -0.2406  1.4145
14579SOL     OW45156   6.951   1.690   5.375  0.2051 -0.1444  0.0762
14579SOL    HW145157   6.917   1.655   5.293  2.9475 -0.9581 -0.8089
14579SOL    HW245158   6.878   1.740   5.411 -1.2697 -0.1760 -2.5899
14580SOL     OW45159   2.160   6.862   4.912 -0.1341 -0.7555 -0.0177
14580SOL    HW145160   2.238   6.818   4.946  0.2076 -0.3092 -0.2221
14580SOL    HW245161   2.136   6.924   4.981 -0.0961 -0.6389 -0.1093
14581SOL     OW45162   1.611   7.466   4.944  0.3013  0.0297  0.1172
14581SOL    HW145163   1.629   7.554   4.978 -0.8281  0.1352  0.4806
14581SOL    HW245164   1.545   7.430   5.003  0.1821 -0.7662 -0.4855
14582SOL     OW45165   7.052   3.994   6.333 -0.6616  0.6553  0.0678
14582SOL    HW145166   7.027   4.062   6.270 -1.0414 -0.0099 -0.5135
14582SOL    HW245167   6.996   4.010   6.409 -0.0581  1.5879  0.3347
14583SOL     OW45168   1.209   2.330   2.608 -0.1720  0.1071 -0.7044
14583SOL    HW145169   1.133   2.290   2.651  0.9592 -2.4623 -0.9057
14583SOL    HW245170   1.182   2.338   2.516 -0.5961  0.3424 -0.5665
14584SOL     OW45171   7.945   3.520   2.931  0.6332  0.0748  0.2830
14584SOL    HW145172   7.962   3.586   2.864 -0.6649  0.9991  0.8136
14584SOL    HW245173   7.991   3.553   3.009 -0.3064  0.5821  0.6480
14585SOL     OW45174   1.105   4.740   5.575  0.2758 -0.3822  0.3008
14585SOL    HW145175   1.117   4.668   5.513 -0.5409  0.9472 -1.4997
14585SOL    HW245176   1.010   4.748   5.582  0.2889  1.6536 -1.0105
14586SOL     OW45177   1.354   1.160   6.124  0.4677 -0.1460  0.2483
14586SOL    HW145178   1.446   1.138   6.115  0.1901 -1.0861 -0.4404
14586SOL    HW245179   1.322   1.101   6.193  0.1094 -0.7420 -0.4064
14587SOL     OW45180   5.647   1.686   7.156 -0.0918  0.4378  0.0297
14587SOL    HW145181   5.581   1.693   7.226 -2.0632 -0.4571 -1.6247
14587SOL    HW245182   5.648   1.593   7.133 -1.3653  0.9982 -2.7390
14588SOL     OW45183   3.169   5.181   4.523  0.4374  0.0583 -0.2081
14588SOL    HW145184   3.205   5.250   4.580 -0.0080  0.0413  0.1058
14588SOL    HW245185   3.077   5.173   4.551 -0.5269  1.7855 -2.5841
14589SOL     OW45186   4.128   2.203   3.068  0.8465  0.1438  0.0986
14589SOL    HW145187   4.181   2.146   3.012  2.0635  2.5171 -1.3359
14589SOL    HW245188   4.191   2.268   3.101 -0.1512 -0.2131  2.9990
14590SOL     OW45189   0.619   4.731   3.332  0.0288 -0.3592  0.4575
14590SOL    HW145190   0.549   4.710   3.394 -0.5997 -3.1212 -1.0014
14590SOL    HW245191   0.577   4.784   3.265 -0.6361 -1.7050 -0.2263
14591SOL     OW45192   1.482   7.727   4.699  0.0309  0.0187  0.1743
14591SOL    HW145193   1.458   7.761   4.785 -2.1875  0.6989 -0.6619
14591SOL    HW245194   1.401   7.730   4.648  1.5754  1.0663 -2.4174
14592SOL     OW45195   5.636   1.231   7.661  0.0310 -0.0302  0.1558
14592SOL    HW145196   5.714   1.284   7.642  0.4924 -0.6882  0.1609
14592SOL    HW245197   5.586   1.283   7.723  0.1326  0.6999 -0.3604
14593SOL     OW45198   2.199   2.642   4.978 -0.0965 -0.3074 -0.0954
14593SOL    HW145199   2.240   2.605   5.057  0.6630  0.5721 -0.0447
14593SOL    HW245200   2.270   2.643   4.914  0.2208  1.9039  0.2054
14594SOL     OW45201   0.883   2.940   6.466 -0.6588  0.4633  0.1761
14594SOL    HW145202   0.837   3.024   6.472 -1.1648  0.2410 -0.5164
14594SOL    HW245203   0.948   2.944   6.536 -2.1436  0.5143  1.6237
14595SOL     OW45204   1.460   0.214   6.428 -0.7424 -0.4446 -0.0226
14595SOL    HW145205   1.550   0.185   6.433  0.2566  2.0064 -1.5768
14595SOL    HW245206   1.450   0.275   6.501 -1.0374 -0.4583 -0.0493
14596SOL     OW45207   3.205   7.593   5.580 -0.2712 -0.2349  0.5201
14596SOL    HW145208   3.286   7.643   5.569  0.1918 -1.1328 -0.3526
14596SOL    HW245209   3.214   7.520   5.519 -2.3904  0.4583 -0.7500
14597SOL     OW45210   7.701   3.620   4.993 -0.1301 -0.1141  0.2157
14597SOL    HW145211   7.704   3.716   4.998  0.6060 -0.0070 -1.5290
14597SOL    HW245212   7.657   3.593   5.073 -1.3228  1.7411  0.2497
14598SOL     OW45213   7.007   3.345   0.867  0.2656 -0.1196  0.1876
14598SOL    HW145214   6.964   3.412   0.813 -0.1570 -0.1244  0.5135
14598SOL    HW245215   7.021   3.271   0.807  2.3959  0.8835 -0.6821
14599SOL     OW45216   2.402   0.326   1.756  0.4701 -0.9424  0.6880
14599SOL    HW145217   2.481   0.379   1.770 -0.0599 -0.0588  0.4025
14599SOL    HW245218   2.420   0.277   1.676 -0.0883  0.9000 -0.6429
14600SOL     OW45219   3.252   5.995   1.126 -0.3635  0.3776  0.3737
14600SOL    HW145220   3.159   5.980   1.141 -0.4692  1.1723  0.5364
14600SOL    HW245221   3.271   6.077   1.170  0.2556  0.5956 -0.2765
14601SOL     OW45222   1.460   1.341   0.389  0.5104 -0.3184  0.4638
14601SOL    HW145223   1.505   1.418   0.424  0.0703 -0.2643  0.9259
14601SOL    HW245224   1.460   1.354   0.294  0.6065  0.1553  0.5263
14602SOL     OW45225   6.171   1.819   3.441 -0.3475  0.2696  0.2158
14602SOL    HW145226   6.175   1.901   3.393 -0.2621 -0.2759 -0.7205
14602SOL    HW245227   6.129   1.758   3.381 -1.3542 -0.1152  1.2742
14603SOL     OW45228   4.727   3.818   4.820 -0.3481  0.4458 -0.9072
14603SOL    HW145229   4.655   3.870   4.855  0.7997  2.4125 -1.2873
14603SOL    HW245230   4.786   3.806   4.894 -0.7358 -0.5615 -0.7590
14604SOL     OW45231   1.751   2.317   4.549 -0.2803  0.5881 -0.4886
14604SOL    HW145232   1.721   2.233   4.583  0.2668 -0.0641 -1.5818
14604SOL    HW245233   1.836   2.331   4.591 -1.3026  1.6560  1.3491
14605SOL     OW45234   6.515   2.044   3.749  0.7656  0.3337  0.9676
14605SOL    HW145235   6.583   2.077   3.807  1.2391  0.1585  0.5162
14605SOL    HW245236   6.480   2.123   3.707 -0.4696  0.5970  2.4313
14606SOL     OW45237   0.097   5.668   0.177 -0.4379 -0.0668  0.0877
14606SOL    HW145238   0.119   5.742   0.120 -2.9737 -0.3134 -1.3631
14606SOL    HW245239   0.018   5.697   0.223  0.8644 -0.3645  2.6420
14607SOL     OW45240   4.633   2.985   7.096  0.2742  0.3111  0.4897
14607SOL    HW145241   4.661   3.075   7.111  2.1713 -0.0399 -0.6171
14607SOL    HW245242   4.667   2.963   7.009 -1.4443 -0.9938  0.1030
14608SOL     OW45243   2.021   5.442   6.429  0.1757 -0.0307 -0.9268
14608SOL    HW145244   2.044   5.384   6.357 -3.0346 -1.7673 -0.7325
14608SOL    HW245245   2.002   5.526   6.388  2.2282  0.1585 -1.5559
14609SOL     OW45246   3.120   5.236   7.736  0.3013 -0.2302  0.1243
14609SOL    HW145247   3.027   5.256   7.735 -0.1882 -2.2077 -1.3626
14609SOL    HW245248   3.130   5.171   7.805  0.8169  0.7958  1.0422
14610SOL     OW45249   3.108   0.173   7.942  0.2801 -0.6200  0.2771
14610SOL    HW145250   3.034   0.230   7.919  0.6749 -0.0820  0.3332
14610SOL    HW245251   3.132   0.132   7.859 -0.7164 -1.5772  0.4306
14611SOL     OW45252   1.368   2.422   5.956 -0.1329 -0.1291 -0.2561
14611SOL    HW145253   1.424   2.344   5.962  1.0872  0.6378 -1.1571
14611SOL    HW245254   1.345   2.442   6.046  0.7401 -0.6828  0.1033
14612SOL     OW45255   1.200   5.755   3.773  0.3429  0.4093 -0.0288
14612SOL    HW145256   1.244   5.679   3.733  0.2262 -0.1663  0.9194
14612SOL    HW245257   1.116   5.721   3.804 -0.3786  1.2807 -0.9450
14613SOL     OW45258   3.495   4.179   1.501 -0.4528  0.1378  0.2391
14613SOL    HW145259   3.410   4.160   1.460  0.8373  0.9975 -3.0916
14613SOL    HW245260   3.519   4.096   1.543 -2.2060 -0.5798 -0.0529
14614SOL     OW45261   8.026   5.322   5.480 -0.1215  0.0393 -0.1921
14614SOL    HW145262   8.078   5.343   5.402 -0.2273 -0.6750 -0.4559
14614SOL    HW245263   7.972   5.400   5.493  0.3911  0.4439 -0.4221
14615SOL     OW45264   5.062   3.527   5.415 -0.2230 -0.3375  0.2102
14615SOL    HW145265   5.122   3.534   5.341 -0.7018  1.4581 -0.0559
14615SOL    HW245266   5.034   3.436   5.414  0.6961 -0.6407 -1.0812
14616SOL     OW45267   2.232   2.779   0.102  0.3783  0.4344 -0.8052
14616SOL    HW145268   2.266   2.745   0.184 -1.3181 -0.2548 -0.3375
14616SOL    HW245269   2.250   2.711   0.038 -0.9631 -0.4033 -0.3415
14617SOL     OW45270   7.875   4.489   1.631 -0.2624 -0.3867  0.1473
14617SOL    HW145271   7.805   4.517   1.690  0.8017 -2.2209  2.4027
14617SOL    HW245272   7.830   4.468   1.549 -2.1517 -0.2205  1.0844
14618SOL     OW45273   0.640   6.288   1.428  0.1601  0.0538  0.1298
14618SOL    HW145274   0.627   6.193   1.425 -1.5432  0.2665 -0.0972
14618SOL    HW245275   0.709   6.304   1.364  0.5026 -1.0391  0.1995
14619SOL     OW45276   2.398   7.169   6.322 -1.0479 -0.2122  0.1587
14619SOL    HW145277   2.443   7.204   6.245  1.1905 -1.0355  1.0187
14619SOL    HW245278   2.376   7.079   6.298 -0.0380 -0.5815  0.5692
14620SOL     OW45279   0.177   0.029   6.491  0.0998 -0.0220  0.2224
14620SOL    HW145280   0.202  -0.063   6.483  0.9633  0.3082 -1.4661
14620SOL    HW245281   0.259   0.077   6.477 -0.2393  1.0202  1.5733
14621SOL     OW45282   0.466   6.831   3.354 -0.5668 -0.1476 -0.4554
14621SOL    HW145283   0.389   6.885   3.369  0.6342  1.3981  0.3771
14621SOL    HW245284   0.494   6.854   3.265  0.7634  1.7225  0.4116
14622SOL     OW45285   0.782   4.172   5.283 -0.0483  0.2184  0.2051
14622SOL    HW145286   0.809   4.263   5.275  0.7922  0.0514  0.9090
14622SOL    HW245287   0.775   4.158   5.378  0.6565 -0.6609  0.1478
14623SOL     OW45288   0.933   0.212   6.483 -0.2375 -0.5122  0.0475
14623SOL    HW145289   0.991   0.286   6.462  0.7948 -1.3804 -0.2724
14623SOL    HW245290   0.954   0.146   6.417 -1.0433 -1.1424  0.4140
14624SOL     OW45291   3.617   2.892   5.094  0.0915 -0.0585 -0.5079
14624SOL    HW145292   3.684   2.834   5.131 -1.3021 -0.7446  1.0786
14624SOL    HW245293   3.664   2.945   5.029  1.8256 -1.5853 -0.5833
14625SOL     OW45294   7.701   2.047   4.020  0.4912  0.0698 -0.0359
14625SOL    HW145295   7.749   2.045   4.102  1.6615  0.9138 -0.6703
14625SOL    HW245296   7.704   2.139   3.993 -0.6278 -0.0384 -0.5997
14626SOL     OW45297   5.858   1.926   1.459 -0.1004 -0.0626  0.8162
14626SOL    HW145298   5.805   2.003   1.438  1.2036  0.8802  0.8842
14626SOL    HW245299   5.861   1.876   1.377 -0.1866  0.4281  0.5128
14627SOL     OW45300   1.542   0.128   1.611  0.7914 -0.3430  0.1457
14627SOL    HW145301   1.524   0.095   1.523  0.0429  1.2329 -0.3206
14627SOL    HW245302   1.530   0.052   1.668 -3.6137 -0.3997 -0.5366
14628SOL     OW45303   6.744   5.264   4.480 -0.1176 -0.3279 -0.4275
14628SOL    HW145304   6.752   5.359   4.481 -0.2410 -0.3125 -0.7674
14628SOL    HW245305   6.654   5.247   4.508  0.7863 -0.4782  2.7417
14629SOL     OW45306   1.090   1.584   7.662 -0.4540  0.4321  0.0418
14629SOL    HW145307   1.004   1.569   7.623 -0.2392  1.1082 -0.7345
14629SOL    HW245308   1.097   1.520   7.732 -1.5576  0.3163  0.0603
14630SOL     OW45309   7.181   3.771   1.234 -0.5439  0.0060  0.8379
14630SOL    HW145310   7.228   3.744   1.313  0.5468 -2.9253 -0.6830
14630SOL    HW245311   7.248   3.779   1.167 -1.8522 -2.8448 -1.0263
14631SOL     OW45312   5.208   1.138   7.851  0.3859  0.2412  0.3271
14631SOL    HW145313   5.268   1.134   7.925 -1.1038 -0.6340  1.5519
14631SOL    HW245314   5.259   1.106   7.777  1.0476 -1.8494  1.6009
14632SOL     OW45315   1.310   7.249   1.917 -0.2218 -0.2864 -0.2286
14632SOL    HW145316   1.217   7.225   1.928 -0.4263  0.4232 -0.3630
14632SOL    HW245317   1.340   7.267   2.006 -0.0976 -0.8992 -0.1384
14633SOL     OW45318   0.495   3.074   8.049  0.0530  0.2588  0.3700
14633SOL    HW145319   0.472   3.138   8.116  0.5241  0.5503  0.2570
14633SOL    HW245320   0.583   3.098   8.022  0.6582 -1.0515  1.0606
14634SOL     OW45321   0.770   2.920   2.617  0.4343 -0.4313 -0.2368
14634SOL    HW145322   0.702   2.875   2.666 -0.1016  0.6977  0.1049
14634SOL    HW245323   0.826   2.851   2.583 -1.5104 -1.4749 -1.4812
14635SOL     OW45324   1.499   4.480   5.615  0.0972  0.5686  0.2330
14635SOL    HW145325   1.490   4.470   5.521 -0.0358  0.0503  0.2955
14635SOL    HW245326   1.457   4.564   5.635 -0.2122  0.4964 -0.1186
14636SOL     OW45327   7.462   4.905   4.395  0.1150  0.5486 -0.1998
14636SOL    HW145328   7.434   4.827   4.443 -0.6029  2.4006  2.6457
14636SOL    HW245329   7.518   4.871   4.325 -0.4152 -2.4990  0.6839
14637SOL     OW45330   6.743   5.800   1.614  0.2563 -0.0646  0.4222
14637SOL    HW145331   6.680   5.752   1.561  1.3719  0.2480 -1.2675
14637SOL    HW245332   6.778   5.735   1.675 -0.8493 -0.5047  0.5926
14638SOL     OW45333   0.066   4.685   4.829 -0.3031  0.0714  0.0443
14638SOL    HW145334   0.050   4.593   4.851  2.2536 -0.2119  1.1573
14638SOL    HW245335   0.037   4.734   4.906 -0.3162  0.0454  0.0557
14639SOL     OW45336   1.818   1.275   5.047 -0.2508 -0.5851  0.2841
14639SOL    HW145337   1.857   1.360   5.069 -0.8976 -0.0682 -0.4967
14639SOL    HW245338   1.740   1.297   4.995 -0.0877 -1.6761 -0.4494
14640SOL     OW45339   1.448   0.172   7.316  0.4885  0.0512  0.7248
14640SOL    HW145340   1.523   0.113   7.323  1.2802  0.9914  0.3711
14640SOL    HW245341   1.371   0.114   7.322  1.1984 -0.7723  2.5584
14641SOL     OW45342   1.475   5.560   3.869 -0.4462  0.1202 -0.1181
14641SOL    HW145343   1.527   5.623   3.819 -0.2922 -0.6215 -0.9103
14641SOL    HW245344   1.422   5.515   3.803  0.6571 -1.7424  0.1862
14642SOL     OW45345   6.547   4.614   0.249  0.0140  0.5762  0.1727
14642SOL    HW145346   6.518   4.706   0.254 -0.6974  0.4809 -1.4872
14642SOL    HW245347   6.530   4.589   0.158  0.6483 -1.0680  0.4799
14643SOL     OW45348   2.349   7.089   6.804  0.1667 -0.0771  0.5387
14643SOL    HW145349   2.403   7.086   6.725  0.2263 -2.3084  0.6114
14643SOL    HW245350   2.391   7.155   6.859  1.3045  0.0808 -0.4802
14644SOL     OW45351   5.878   6.694   5.259  0.0717 -0.3386  0.7275
14644SOL    HW145352   5.873   6.641   5.338 -0.5032  0.2764  1.1092
14644SOL    HW245353   5.792   6.683   5.218  0.1877 -0.2329  0.4566
14645SOL     OW45354   4.570   4.644   7.111  0.0393 -0.3679 -0.4032
14645SOL    HW145355   4.597   4.585   7.182 -0.5046 -0.4859 -0.2870
14645SOL    HW245356   4.573   4.731   7.150  0.2139 -0.3859 -0.3780
14646SOL     OW45357   1.248   7.353   7.515 -0.0975  0.1150 -0.1515
14646SOL    HW145358   1.236   7.439   7.475 -3.5545 -0.0134  0.3177
14646SOL    HW245359   1.235   7.291   7.444  1.9321 -0.0877 -0.3927
14647SOL     OW45360   5.615   7.236   6.005  0.0807  0.2169 -0.9947
14647SOL    HW145361   5.539   7.294   5.998 -1.3223 -1.0767  1.6766
14647SOL    HW245362   5.669   7.275   6.074 -0.1672 -0.8215 -0.1746
14648SOL     OW45363   1.300   3.078   0.252 -0.1585  0.0699  0.5418
14648SOL    HW145364   1.285   2.984   0.248  1.2452 -0.2814  2.2440
14648SOL    HW245365   1.251   3.106   0.329 -0.7547  0.7836 -0.0883
14649SOL     OW45366   0.000   5.736   3.274  0.1808  0.6524 -0.1875
14649SOL    HW145367   0.066   5.667   3.260 -1.0991 -0.7060  0.2453
14649SOL    HW245368   0.049   5.809   3.310  1.5383 -0.1491 -0.3386
14650SOL     OW45369   0.370   1.226   1.899 -0.2874 -0.1645 -0.5998
14650SOL    HW145370   0.322   1.237   1.981  1.1779 -0.9738  0.4114
14650SOL    HW245371   0.378   1.131   1.888  0.3648 -0.0585 -1.1640
14651SOL     OW45372   6.572   4.876   2.049 -0.5048 -0.0421 -0.0920
14651SOL    HW145373   6.557   4.938   1.977  0.1107  0.0446 -0.1522
14651SOL    HW245374   6.583   4.792   2.006 -1.5047 -0.2342  0.0008
14652SOL     OW45375   1.679   4.190   1.698  0.2698  0.6241 -0.1557
14652SOL    HW145376   1.690   4.125   1.628  0.2768  0.9688 -0.4791
14652SOL    HW245377   1.593   4.172   1.735  0.4528  0.1504  0.0517
14653SOL     OW45378   5.492   2.680   5.328  0.3564  0.0676 -0.3206
14653SOL    HW145379   5.456   2.732   5.256 -0.5052  1.6278  1.1769
14653SOL    HW245380   5.571   2.640   5.291 -1.1276 -0.8962 -2.7476
14654SOL     OW45381   3.089   3.209   2.483  0.0367 -0.2612  0.1690
14654SOL    HW145382   3.040   3.261   2.548  1.8856  1.7738  0.0375
14654SOL    HW245383   3.111   3.272   2.414  0.6907 -1.7056 -0.9810
14655SOL     OW45384   7.502   7.322   6.018  0.1319  0.3441 -0.4300
14655SOL    HW145385   7.503   7.396   6.078 -0.8141  2.0384 -2.3632
14655SOL    HW245386   7.470   7.248   6.070  0.7018  1.3798  1.4522
14656SOL     OW45387   6.038   1.462   3.579  0.3616 -0.2332 -0.0614
14656SOL    HW145388   6.019   1.379   3.624 -0.1624  0.1936  0.5231
14656SOL    HW245389   5.954   1.509   3.580  1.0735  1.0926  1.2970
14657SOL     OW45390   6.754   3.902   1.888 -0.0301 -0.2174 -0.3907
14657SOL    HW145391   6.782   3.819   1.927 -0.2730  0.2506  0.8341
14657SOL    HW245392   6.760   3.965   1.960  1.8801  1.2415 -1.7168
14658SOL     OW45393   6.369   7.112   0.931 -0.0439  0.7085 -0.2292
14658SOL    HW145394   6.464   7.108   0.946 -0.0718 -1.4260 -0.2532
14658SOL    HW245395   6.330   7.086   1.014 -0.4728 -1.1676 -0.9463
14659SOL     OW45396   2.414   2.688   7.330  0.1580  0.3884  1.0896
14659SOL    HW145397   2.473   2.741   7.276 -0.2982  0.3658  0.5553
14659SOL    HW245398   2.382   2.620   7.271  0.0588  0.0412  1.5375
14660SOL     OW45399   5.168   2.853   1.705 -0.4833 -0.0295 -0.0338
14660SOL    HW145400   5.203   2.872   1.792  0.8362  0.4274 -0.6235
14660SOL    HW245401   5.226   2.786   1.670 -0.6212  0.2276 -0.7814
14661SOL     OW45402   6.628   5.333   0.449 -0.2064  0.4011 -0.6025
14661SOL    HW145403   6.623   5.299   0.538  0.1600 -1.3034 -1.1994
14661SOL    HW245404   6.603   5.425   0.457  0.7858  0.5383  1.4004
14662SOL     OW45405   1.891   4.994   2.418 -0.0867  0.4261  0.1623
14662SOL    HW145406   1.961   5.039   2.371  0.2135 -0.2674 -0.0675
14662SOL    HW245407   1.811   5.021   2.373  0.1252  0.4501 -0.2037
14663SOL     OW45408   3.754   4.083   2.816  0.2394  0.9358 -0.1854
14663SOL    HW145409   3.686   4.119   2.872 -1.5264  0.3255 -1.8059
14663SOL    HW245410   3.707   4.024   2.756  2.4604 -1.0952 -0.1049
14664SOL     OW45411   4.036   2.278   0.580  0.6375  0.1125 -0.1839
14664SOL    HW145412   3.953   2.254   0.540  0.2189  0.8262  0.2448
14664SOL    HW245413   4.080   2.332   0.515  0.0538  1.0869  0.2078
14665SOL     OW45414   5.816   6.984   1.277 -0.1549 -0.6936 -0.3446
14665SOL    HW145415   5.866   6.902   1.273 -1.2467 -1.3684 -0.5404
14665SOL    HW245416   5.834   7.027   1.194 -0.4036 -1.2456 -0.6884
14666SOL     OW45417   4.129   3.421   6.827 -0.2878  0.1537 -0.0825
14666SOL    HW145418   4.099   3.332   6.812  1.2820 -0.9426  2.5552
14666SOL    HW245419   4.212   3.427   6.779 -0.9609  0.6365 -1.2209
14667SOL     OW45420   0.852   3.332   1.132  0.7082  0.2572 -0.1636
14667SOL    HW145421   0.874   3.416   1.173  0.0362  0.2759  0.1682
14667SOL    HW245422   0.880   3.266   1.196 -2.3697  0.3261  1.4177
14668SOL     OW45423   2.632   4.561   7.566 -0.1371 -0.6153 -0.4415
14668SOL    HW145424   2.541   4.549   7.592 -0.1879  0.1178 -0.2596
14668SOL    HW245425   2.641   4.511   7.485 -0.1409 -2.4491  0.6207
14669SOL     OW45426   1.768   2.707   6.851 -1.1459 -0.8102 -0.3060
14669SOL    HW145427   1.698   2.766   6.824 -1.3181 -0.0788  1.5413
14669SOL    HW245428   1.845   2.763   6.857 -1.3328 -0.6757  1.5682
14670SOL     OW45429   3.284   5.962   2.456 -0.1723 -0.3625  0.6378
14670SOL    HW145430   3.325   6.049   2.458  0.8379 -0.7911 -0.1624
14670SOL    HW245431   3.247   5.951   2.543  1.2761  0.1495  1.3646
14671SOL     OW45432   3.850   8.023   4.171 -0.0171  0.1182  0.1838
14671SOL    HW145433   3.913   8.027   4.243 -0.1166  1.2996  0.2336
14671SOL    HW245434   3.898   7.986   4.098 -0.0002 -1.4127  0.9338
14672SOL     OW45435   1.021   6.522   1.382  0.3375  0.1023 -0.0494
14672SOL    HW145436   1.042   6.532   1.475 -1.0786 -1.4583  0.4870
14672SOL    HW245437   1.057   6.436   1.359 -0.7049 -0.2188 -0.5191
14673SOL     OW45438   1.503   2.178   5.947 -0.0234  0.1139  0.3802
14673SOL    HW145439   1.574   2.156   5.887 -2.3431 -3.2064 -1.4410
14673SOL    HW245440   1.511   2.116   6.019 -0.8245 -0.0243  0.3618
14674SOL     OW45441   0.068   4.693   5.579 -0.2916 -0.2363 -0.2564
14674SOL    HW145442   0.137   4.628   5.587  2.1782  2.0626 -1.2309
14674SOL    HW245443   0.029   4.677   5.493  0.3217 -0.4471 -0.5025
14675SOL     OW45444   5.070   0.672   2.201  0.2530 -0.4631  0.0488
14675SOL    HW145445   5.109   0.760   2.198  0.9446 -0.6730  1.6862
14675SOL    HW245446   5.114   0.624   2.131  1.8194 -0.2251  0.8127
14676SOL     OW45447   1.203   6.179   1.698 -0.0930 -0.5599  0.3495
14676SOL    HW145448   1.225   6.235   1.772 -0.9800  0.5335 -0.1847
14676SOL    HW245449   1.288   6.155   1.660  0.3149  1.7374 -0.3380
14677SOL     OW45450   7.956   5.471   0.240  0.1761  0.7635  0.6636
14677SOL    HW145451   7.908   5.513   0.311  2.2105  0.5378  2.2742
14677SOL    HW245452   8.039   5.443   0.280  0.7336 -0.8432 -1.4117
14678SOL     OW45453   6.797   6.112   5.916 -0.0885  0.2906  0.2848
14678SOL    HW145454   6.723   6.081   5.863  0.6057 -2.6140  0.8529
14678SOL    HW245455   6.757   6.175   5.976 -1.9023 -0.3242 -0.1866
14679SOL     OW45456   2.586   2.391   3.493  0.0197 -0.2668 -0.2067
14679SOL    HW145457   2.620   2.459   3.434 -0.5733 -0.4439 -0.7547
14679SOL    HW245458   2.565   2.439   3.574  0.5236  0.0340 -0.2481
14680SOL     OW45459   5.556   5.791   1.110 -0.3796  0.0821  0.1829
14680SOL    HW145460   5.480   5.849   1.114  1.1271  2.2303 -0.4809
14680SOL    HW245461   5.628   5.844   1.143  1.0816 -1.4518 -0.4149
14681SOL     OW45462   5.205   0.387   3.718 -0.2150 -0.3754  0.0021
14681SOL    HW145463   5.235   0.366   3.806  1.3041 -0.7076 -0.5599
14681SOL    HW245464   5.114   0.358   3.716 -1.1420  2.0112  2.2466
14682SOL     OW45465   8.051   7.081   7.963  0.7162 -0.4317  0.4123
14682SOL    HW145466   8.107   7.055   8.037  0.7340 -0.9409  0.2201
14682SOL    HW245467   7.993   7.006   7.950 -0.5549  0.3965  1.1184
14683SOL     OW45468   4.365   7.412   0.511  0.3161  0.0183  0.5197
14683SOL    HW145469   4.322   7.330   0.536  0.8502 -0.3064  0.4095
14683SOL    HW245470   4.339   7.475   0.577 -0.9642  0.0436  0.0165
14684SOL     OW45471   0.849   4.370   2.362 -0.3947  0.2051  0.0049
14684SOL    HW145472   0.920   4.310   2.339 -0.2806  0.8357 -1.3751
14684SOL    HW245473   0.848   4.370   2.457  0.4926 -0.9411  0.0427
14685SOL     OW45474   7.448   5.928   4.906  0.0311  0.3385  0.1754
14685SOL    HW145475   7.380   5.946   4.971 -1.6425 -1.4117 -0.9598
14685SOL    HW245476   7.448   6.005   4.849 -2.0875 -0.1615 -0.6212
14686SOL     OW45477   5.465   3.461   7.493 -0.4837 -0.1208  0.5184
14686SOL    HW145478   5.474   3.541   7.442 -0.8107 -0.2105  0.3175
14686SOL    HW245479   5.380   3.425   7.468 -1.9623  1.2698  3.1686
14687SOL     OW45480   3.184   4.442   4.332 -0.0866 -1.0768  0.0791
14687SOL    HW145481   3.135   4.404   4.259  0.2539 -0.2376 -0.6040
14687SOL    HW245482   3.276   4.432   4.307  0.0156 -0.0172 -0.0142
14688SOL     OW45483   0.588   0.924   2.340 -0.2561 -0.6856  0.3655
14688SOL    HW145484   0.617   1.011   2.368 -0.0568 -0.2398 -1.1349
14688SOL    HW245485   0.594   0.870   2.419  2.1841  0.0163  0.7306
14689SOL     OW45486   1.491   3.708   5.335 -0.3870 -0.9470  0.0436
14689SOL    HW145487   1.456   3.719   5.424 -0.7415 -1.9787  0.0417
14689SOL    HW245488   1.415   3.722   5.278 -0.0888  0.0631 -0.1316
14690SOL     OW45489   0.039   1.676   7.126 -0.0511 -0.1390 -0.3950
14690SOL    HW145490   0.094   1.607   7.162 -1.6211 -0.4661  1.5311
14690SOL    HW245491  -0.032   1.630   7.082  0.3741  0.2914 -1.5925
14691SOL     OW45492   2.345   6.970   4.292 -0.1199 -0.5178 -0.6411
14691SOL    HW145493   2.425   7.006   4.328  0.2055 -0.5124 -1.3701
14691SOL    HW245494   2.282   6.974   4.365  0.3263  0.1405 -0.2856
14692SOL     OW45495   4.496   1.198   6.684  0.5997  0.3844 -0.0064
14692SOL    HW145496   4.518   1.269   6.744  1.2799 -0.4605  0.7709
14692SOL    HW245497   4.579   1.153   6.668  0.7977  1.6582 -3.0452
14693SOL     OW45498   4.035   2.625   0.065 -0.2800 -0.1868 -0.5570
14693SOL    HW145499   4.028   2.629   0.161 -0.1466 -0.9469 -0.5110
14693SOL    HW245500   4.120   2.665   0.046  0.0634 -0.7690 -0.2878
14694SOL     OW45501   0.653   0.482   5.599  0.3887 -0.2610 -0.1704
14694SOL    HW145502   0.626   0.540   5.671  1.1816 -0.1704  0.0634
14694SOL    HW245503   0.703   0.539   5.541 -0.1900 -0.3507 -0.7759
14695SOL     OW45504   2.378   2.375   1.414 -0.0641 -0.0967 -0.0803
14695SOL    HW145505   2.351   2.375   1.506 -0.2680 -0.4183 -0.1360
14695SOL    HW245506   2.359   2.463   1.383  1.3298  0.4472  0.5568
14696SOL     OW45507   4.341   3.694   2.424  0.0236 -0.6305 -0.3920
14696SOL    HW145508   4.301   3.657   2.346 -1.4823  0.8286 -0.3646
14696SOL    HW245509   4.384   3.774   2.393  0.4458 -0.6641  0.0861
14697SOL     OW45510   6.724   7.312   3.614 -0.2467  0.0665 -0.6369
14697SOL    HW145511   6.769   7.228   3.608 -1.4473 -0.6694  0.2329
14697SOL    HW245512   6.769   7.360   3.684  0.0777 -0.0796 -0.7462
14698SOL     OW45513   2.808   7.265   2.951  0.3034  0.3294  0.2345
14698SOL    HW145514   2.836   7.180   2.918 -1.6015 -0.1083 -0.3576
14698SOL    HW245515   2.867   7.328   2.908  2.0716 -0.6791  1.0815
14699SOL     OW45516   6.027   5.744   0.881 -0.1491 -0.2674 -0.0050
14699SOL    HW145517   5.944   5.791   0.878  0.5653  1.1090  0.8581
14699SOL    HW245518   6.063   5.752   0.792 -1.4134 -1.8475 -0.7095
14700SOL     OW45519   2.039   5.652   3.699 -0.0558 -0.2798 -0.0758
14700SOL    HW145520   2.070   5.562   3.709  2.5601  0.4838 -0.7399
14700SOL    HW245521   2.023   5.661   3.605  2.0498  0.6092 -0.3920
14701SOL     OW45522   5.622   0.087   3.636 -0.4153  0.3524  0.0742
14701SOL    HW145523   5.627  -0.007   3.618 -1.1434  0.3946 -0.3688
14701SOL    HW245524   5.661   0.129   3.560 -0.4675  0.4278  0.0890
14702SOL     OW45525   2.680   6.085   2.227 -0.3125  0.6862  0.2309
14702SOL    HW145526   2.605   6.145   2.233 -0.8319  0.3699 -2.1583
14702SOL    HW245527   2.659   6.028   2.153  1.7640 -0.1768  0.2484
14703SOL     OW45528   5.079   6.707   4.863 -0.2390  0.5292 -0.0784
14703SOL    HW145529   5.002   6.757   4.838 -1.6720 -0.5692  1.8678
14703SOL    HW245530   5.107   6.746   4.946  1.6764  1.2564 -1.0126
14704SOL     OW45531   5.952   3.540   6.562  0.0384 -0.0612 -0.2365
14704SOL    HW145532   5.960   3.592   6.642 -1.9378  0.3265 -0.2274
14704SOL    HW245533   5.941   3.605   6.493  2.5381 -0.3628 -1.0007
14705SOL     OW45534   0.872   6.865   2.895  0.2952  0.1776  0.1876
14705SOL    HW145535   0.939   6.867   2.826 -0.6783  2.0868 -0.7943
14705SOL    HW245536   0.790   6.883   2.849 -0.6302 -0.1694  1.6325
14706SOL     OW45537   4.972   1.415   5.665  0.4864 -0.2305  0.1701
14706SOL    HW145538   4.894   1.384   5.711 -1.0853 -0.2158 -2.2667
14706SOL    HW245539   5.026   1.454   5.733  0.2929 -3.7665  2.6060
14707SOL     OW45540   0.267   7.310   2.757  0.0436  0.2480 -0.1150
14707SOL    HW145541   0.251   7.277   2.669  1.7509 -1.6802  0.2301
14707SOL    HW245542   0.346   7.364   2.749 -1.4651  2.6259 -0.2414
14708SOL     OW45543   5.124   8.021   7.016 -0.0152 -0.0083 -0.0219
14708SOL    HW145544   5.064   7.954   7.048  0.9917 -1.6297 -1.3683
14708SOL    HW245545   5.084   8.053   6.936 -0.3752  0.8843  0.4943
14709SOL     OW45546   6.014   3.344   4.735 -0.0286  0.3263  0.1371
14709SOL    HW145547   6.007   3.323   4.829 -0.9026  1.4881  0.3564
14709SOL    HW245548   6.044   3.435   4.733  0.6614  0.0835 -0.7283
14710SOL     OW45549   1.748   6.917   5.313  0.4888 -0.0109  0.0995
14710SOL    HW145550   1.792   6.889   5.233 -0.0027  0.6615 -0.4206
14710SOL    HW245551   1.721   7.007   5.295 -0.5351 -0.1938  0.6379
14711SOL     OW45552   5.842   7.426   1.289  0.4171  0.2814  0.2696
14711SOL    HW145553   5.898   7.445   1.364 -1.8961  0.7253  1.9904
14711SOL    HW245554   5.827   7.511   1.248  1.4181  0.0832 -0.5418
14712SOL     OW45555   1.839   5.521   5.290 -0.5860  0.3226  0.2525
14712SOL    HW145556   1.883   5.454   5.343 -0.9679 -0.9739 -1.0084
14712SOL    HW245557   1.888   5.523   5.208 -2.7890 -1.1374 -1.1808
14713SOL     OW45558   3.843   1.190   6.645  0.3987 -1.0661  0.0372
14713SOL    HW145559   3.754   1.210   6.674  1.5769  1.0282  2.5716
14713SOL    HW245560   3.869   1.266   6.593  0.9768 -1.2873 -0.0084
14714SOL     OW45561   3.544   7.061   4.346  0.3793 -0.0878  0.3287
14714SOL    HW145562   3.501   6.998   4.288  1.2767  0.6356 -1.2020
14714SOL    HW245563   3.505   7.045   4.432 -2.6247  0.1973 -0.8321
14715SOL     OW45564   5.523   2.942   5.782  0.0062 -0.0065 -0.2287
14715SOL    HW145565   5.494   3.020   5.829 -1.0454 -0.9995  0.8457
14715SOL    HW245566   5.606   2.918   5.823 -0.6236 -0.5399  0.7628
14716SOL     OW45567   3.855   1.841   1.083 -0.1424  0.1673  0.1673
14716SOL    HW145568   3.898   1.920   1.115  1.7152 -0.8310  0.2504
14716SOL    HW245569   3.819   1.866   0.998  0.4243  1.0957  0.1827
14717SOL     OW45570   6.709   5.952   3.694 -0.3807 -0.4827 -0.3511
14717SOL    HW145571   6.678   5.914   3.776 -1.1848 -0.1392 -0.4961
14717SOL    HW245572   6.739   6.040   3.718 -0.8722 -0.2804 -0.4729
14718SOL     OW45573   6.355   6.535   7.974  0.5824  0.3222  0.2675
14718SOL    HW145574   6.349   6.489   8.058  0.7015 -0.5901 -0.2171
14718SOL    HW245575   6.434   6.589   7.982  2.0733 -1.6734 -0.1578
14719SOL     OW45576   5.118   0.473   6.130 -0.1508  0.5261  0.0622
14719SOL    HW145577   5.023   0.464   6.118  0.0127  0.0223 -1.0195
14719SOL    HW245578   5.145   0.392   6.171  0.2175 -0.7830 -2.5325
14720SOL     OW45579   7.407   3.743   6.173  0.3380 -0.6623 -0.0962
14720SOL    HW145580   7.346   3.754   6.245 -1.7738 -0.0866 -1.8615
14720SOL    HW245581   7.390   3.817   6.115  2.3593 -0.7785 -0.9412
14721SOL     OW45582   3.704   2.711   1.338 -0.1433  0.2658 -0.3330
14721SOL    HW145583   3.612   2.684   1.339 -0.5221  1.4865  0.8066
14721SOL    HW245584   3.721   2.731   1.246 -0.8007 -0.6278 -0.6737
14722SOL     OW45585   5.595   1.578   0.636 -0.7317 -0.9794 -0.2153
14722SOL    HW145586   5.608   1.672   0.635 -2.9308 -0.6219 -0.0916
14722SOL    HW245587   5.585   1.553   0.544  0.4613 -1.2204 -0.2962
14723SOL     OW45588   4.777   3.574   6.349  0.0313  0.5689 -0.8081
14723SOL    HW145589   4.808   3.529   6.428 -1.0790  0.1060 -0.6275
14723SOL    HW245590   4.685   3.549   6.341  0.6743 -1.3980 -3.6354
14724SOL     OW45591   6.893   1.163   2.810 -0.2912 -0.3320  0.2471
14724SOL    HW145592   6.852   1.250   2.807 -2.6455 -1.3836 -0.0663
14724SOL    HW245593   6.964   1.173   2.873 -0.8081  1.7064  0.5899
14725SOL     OW45594   7.309   6.130   1.091  0.0235  0.2298 -0.2953
14725SOL    HW145595   7.298   6.159   1.001  2.5493 -1.2413 -1.1865
14725SOL    HW245596   7.367   6.054   1.084  1.2084  0.7439  2.6568
14726SOL     OW45597   6.799   1.395   6.934 -0.1716 -0.1910  0.4328
14726SOL    HW145598   6.828   1.416   7.023  0.7584  1.2306 -0.1795
14726SOL    HW245599   6.803   1.478   6.886 -2.0832 -0.6191 -0.5883
14727SOL     OW45600   2.356   7.719   2.578  0.5750  0.3528 -0.4754
14727SOL    HW145601   2.341   7.801   2.625  1.7600  0.4908 -0.3040
14727SOL    HW245602   2.452   7.713   2.570  0.5125 -1.0180 -0.4693
14728SOL     OW45603   3.146   7.806   1.927 -0.3120 -0.0521 -0.1628
14728SOL    HW145604   3.095   7.767   1.998  1.1945 -1.7421  0.0743
14728SOL    HW245605   3.236   7.778   1.944  0.4240  1.2338 -1.6161
14729SOL     OW45606   3.941   3.042   1.926 -0.0149  0.0167 -0.4206
14729SOL    HW145607   3.994   3.105   1.877 -0.7088  1.1017  0.1646
14729SOL    HW245608   3.851   3.062   1.901 -0.4234  0.8942  1.5373
14730SOL     OW45609   5.418   7.192   0.552  0.3424  0.4328 -0.6582
14730SOL    HW145610   5.344   7.252   0.547 -0.7309 -0.7293  0.4893
14730SOL    HW245611   5.434   7.182   0.646  1.4848  0.0958 -0.8753
14731SOL     OW45612   2.239   7.957   2.154 -0.8096 -0.0063 -0.1759
14731SOL    HW145613   2.300   7.907   2.210 -0.7345 -0.1130 -0.3511
14731SOL    HW245614   2.155   7.952   2.199 -0.7963 -0.2740 -0.1791
14732SOL     OW45615   0.528   5.783   4.194 -0.2952 -0.1437 -0.4697
14732SOL    HW145616   0.502   5.870   4.222  0.2905 -0.1959  0.2851
14732SOL    HW245617   0.623   5.789   4.183  0.1556 -1.2720  1.9851
14733SOL     OW45618   4.268   7.347   6.887  0.3370 -0.1718  0.6557
14733SOL    HW145619   4.282   7.322   6.978  0.0529  0.2870  0.8283
14733SOL    HW245620   4.309   7.277   6.837  0.3424 -0.5199  1.1341
14734SOL     OW45621   4.210   2.789   7.760  0.5248  0.2739  0.2560
14734SOL    HW145622   4.168   2.736   7.828  0.0659 -0.0586 -0.2857
14734SOL    HW245623   4.272   2.844   7.808  1.4408 -1.1665  0.7782
14735SOL     OW45624   0.920   2.353   6.921 -0.2708  0.4047 -0.0928
14735SOL    HW145625   0.876   2.394   6.846  0.3309 -0.2453 -0.8115
14735SOL    HW245626   0.909   2.416   6.992 -2.9448 -0.0295 -0.0421
14736SOL     OW45627   3.834   2.233   1.014 -0.1177  0.0937 -0.1382
14736SOL    HW145628   3.749   2.260   1.049  1.0066 -1.1869  4.2656
14736SOL    HW245629   3.897   2.253   1.084  2.7102 -1.8655 -1.8788
14737SOL     OW45630   0.120   5.406   3.126  0.3987 -0.1744 -0.3267
14737SOL    HW145631   0.030   5.419   3.096 -0.0324  0.7591  1.2343
14737SOL    HW245632   0.169   5.478   3.085  0.1208  0.2118  0.0099
14738SOL     OW45633   6.423   5.113   5.013  0.1158 -0.0099 -0.1770
14738SOL    HW145634   6.357   5.085   5.076  2.1091  0.3154  2.1775
14738SOL    HW245635   6.486   5.041   5.010  0.8681  0.6521 -0.5896
14739SOL     OW45636   5.984   7.285   6.525  0.4749  0.3226 -0.2089
14739SOL    HW145637   6.048   7.262   6.593 -0.1996 -1.0007  0.0090
14739SOL    HW245638   5.912   7.327   6.572  0.6055  0.6427 -0.2906
14740SOL     OW45639   7.185   5.666   3.549 -0.3025  0.1308 -0.6814
14740SOL    HW145640   7.194   5.687   3.642 -1.3605  1.2480 -0.7901
14740SOL    HW245641   7.274   5.651   3.518 -0.0545 -1.7038  0.8100
14741SOL     OW45642   6.224   6.882   1.689  0.2694 -0.3680 -0.3961
14741SOL    HW145643   6.163   6.846   1.624 -0.1717 -0.6218  0.1526
14741SOL    HW245644   6.179   6.959   1.724  1.7090  1.5623 -2.4554
14742SOL     OW45645   1.401   6.347   2.246 -0.2064  0.1855  0.2437
14742SOL    HW145646   1.427   6.420   2.190 -1.0115 -0.5224 -1.1020
14742SOL    HW245647   1.309   6.332   2.224  0.3001 -2.1118 -0.5457
14743SOL     OW45648   5.738   7.075   0.362  0.0618  0.7695  0.5620
14743SOL    HW145649   5.825   7.061   0.326  0.0926 -0.6032  1.0839
14743SOL    HW245650   5.751   7.079   0.457 -0.4809 -0.0538  0.6873
14744SOL     OW45651   7.885   6.323   7.008  0.0683  0.1984  0.0761
14744SOL    HW145652   7.819   6.379   6.967 -1.4905 -0.8018  1.1222
14744SOL    HW245653   7.963   6.378   7.013 -1.3238  2.2224  0.8980
14745SOL     OW45654   7.526   7.965   2.511  0.1146  0.3819  0.0913
14745SOL    HW145655   7.436   7.979   2.482  0.0975 -0.4926 -0.3014
14745SOL    HW245656   7.539   7.870   2.504  1.3336  0.5880 -0.6431
14746SOL     OW45657   2.278   7.906   5.271 -0.9168 -0.5610  0.5160
14746SOL    HW145658   2.217   7.910   5.198 -0.8803  1.4523  0.5375
14746SOL    HW245659   2.242   7.968   5.336  1.4350  1.2436  0.2444
14747SOL     OW45660   5.776   0.924   6.326 -0.0627  0.3166 -0.5596
14747SOL    HW145661   5.808   0.834   6.320  2.7907  1.2286 -0.6025
14747SOL    HW245662   5.734   0.940   6.242  0.9761 -0.4544 -1.2576
14748SOL     OW45663   2.937   5.414   2.877  0.0625  0.4751  0.0807
14748SOL    HW145664   3.008   5.429   2.939  1.1045  0.8511 -1.1766
14748SOL    HW245665   2.894   5.499   2.868  0.1235  0.4998  0.0247
14749SOL     OW45666   6.932   7.548   4.801 -0.3490  0.7488 -0.7883
14749SOL    HW145667   6.871   7.563   4.728 -1.3117 -0.2613 -0.2095
14749SOL    HW245668   6.998   7.489   4.765 -1.9975 -1.5082 -0.2950
14750SOL     OW45669   2.091   5.827   0.882  0.0038  0.4431  0.3085
14750SOL    HW145670   2.136   5.872   0.954 -1.6496 -0.2498  1.8480
14750SOL    HW245671   2.018   5.884   0.859 -1.6738 -0.9844  1.7781
14751SOL     OW45672   7.463   7.208   7.856  0.1533 -0.1185 -0.0077
14751SOL    HW145673   7.463   7.122   7.898  1.2783 -0.3338 -0.4061
14751SOL    HW245674   7.469   7.189   7.763  2.0322  0.3692 -0.0271
14752SOL     OW45675   3.951   4.589   3.515 -0.8003  0.2106  0.2691
14752SOL    HW145676   3.869   4.541   3.513 -0.8278  0.2478  0.5049
14752SOL    HW245677   4.016   4.528   3.481 -1.1434  0.6080 -1.1558
14753SOL     OW45678   5.908   1.697   5.644  0.2755 -0.0294  0.2929
14753SOL    HW145679   5.939   1.754   5.574  0.5475  0.8650  1.1123
14753SOL    HW245680   5.958   1.616   5.634 -0.3287 -0.2504 -1.0742
14754SOL     OW45681   7.991   7.261   6.776  0.4665 -0.0496 -0.2169
14754SOL    HW145682   8.040   7.180   6.790  0.1684 -0.0924  0.6229
14754SOL    HW245683   7.903   7.241   6.808  0.4913  0.7253  0.3564
14755SOL     OW45684   5.094   0.929   1.511 -0.2567  0.6632 -0.0836
14755SOL    HW145685   5.111   1.018   1.483 -1.0660  1.1914  1.0283
14755SOL    HW245686   5.178   0.897   1.545 -0.2103  1.3791  0.4885
14756SOL     OW45687   3.969   3.657   0.290 -0.3734 -0.2220 -0.1455
14756SOL    HW145688   3.894   3.677   0.345 -0.9692 -0.5950 -0.8108
14756SOL    HW245689   3.969   3.562   0.281  1.2009 -0.4127  1.2491
14757SOL     OW45690   5.302   0.302   0.437 -0.2485 -0.0339 -0.3168
14757SOL    HW145691   5.343   0.223   0.471  0.6912 -0.4098 -2.1690
14757SOL    HW245692   5.208   0.285   0.442 -0.0693 -0.9866 -0.0233
14758SOL     OW45693   1.785   0.714   0.125 -0.1086 -0.1447 -0.2329
14758SOL    HW145694   1.842   0.743   0.053 -1.0236 -0.2356 -1.0206
14758SOL    HW245695   1.794   0.619   0.125 -0.0970 -0.1436 -0.2123
14759SOL     OW45696   4.418   2.671   0.301  0.4304  0.0420 -0.5781
14759SOL    HW145697   4.441   2.737   0.237  3.7383 -0.8396 -0.4559
14759SOL    HW245698   4.478   2.599   0.285 -0.9755 -1.6891  1.2810
14760SOL     OW45699   7.296   6.915   5.703  0.0704 -0.6318 -0.4695
14760SOL    HW145700   7.373   6.866   5.675  0.7361 -0.2765  0.6369
14760SOL    HW245701   7.331   6.986   5.757 -0.9384  0.4514 -1.1860
14761SOL     OW45702   2.777   5.469   5.159 -0.4429  0.3460 -0.3096
14761SOL    HW145703   2.811   5.534   5.098 -1.7620 -0.9943 -2.6159
14761SOL    HW245704   2.810   5.385   5.125 -0.8037 -0.4034  1.1223
14762SOL     OW45705   1.353   5.969   0.168  0.2563 -0.1224  0.2164
14762SOL    HW145706   1.383   5.878   0.175 -1.2947 -0.8141 -1.4151
14762SOL    HW245707   1.401   6.003   0.093 -0.0394  0.0319  0.0973
14763SOL     OW45708   1.311   3.150   5.091  0.1893 -0.3392 -0.4860
14763SOL    HW145709   1.226   3.115   5.064 -0.8001  0.5482  1.2660
14763SOL    HW245710   1.362   3.158   5.010 -1.0998 -1.6587 -1.4603
14764SOL     OW45711   4.043   3.941   1.865 -0.1050  0.3808 -0.4961
14764SOL    HW145712   3.962   3.971   1.906  0.3491  1.5642 -0.4294
14764SOL    HW245713   4.016   3.873   1.805 -1.0869  0.4037 -0.0924
14765SOL     OW45714   0.953   4.402   6.728  0.0906 -0.1449 -0.0901
14765SOL    HW145715   0.979   4.316   6.760 -1.7600 -0.2185  1.3849
14765SOL    HW245716   0.967   4.461   6.803 -0.9232  0.3654 -0.2822
14766SOL     OW45717   1.755   7.263   0.844  0.3075  0.1804  0.0190
14766SOL    HW145718   1.832   7.210   0.825 -1.2413 -1.5005 -2.0538
14766SOL    HW245719   1.681   7.204   0.832 -1.3832  1.8970  1.2584
14767SOL     OW45720   3.511   6.481   6.975  0.0104 -0.6286 -0.2619
14767SOL    HW145721   3.573   6.552   6.959 -0.5083 -0.3648 -1.1403
14767SOL    HW245722   3.512   6.430   6.894 -1.1431 -0.4425 -0.4133
14768SOL     OW45723   2.674   4.953   4.047 -0.4191  0.0634 -0.0463
14768SOL    HW145724   2.660   4.876   3.991 -1.9432  0.4417 -0.2247
14768SOL    HW245725   2.653   5.027   3.991  2.4412  0.7891 -0.3509
14769SOL     OW45726   3.489   2.839   2.097  0.2294  0.1207  0.2235
14769SOL    HW145727   3.538   2.922   2.098  0.3111  0.4217 -4.8265
14769SOL    HW245728   3.400   2.863   2.071 -0.0204 -1.2574 -0.3010
14770SOL     OW45729   6.265   2.529   1.618  0.6212  0.3419 -0.9584
14770SOL    HW145730   6.203   2.457   1.609 -0.3607  1.1453 -0.8098
14770SOL    HW245731   6.305   2.537   1.532  0.9407 -0.5424 -0.9070
14771SOL     OW45732   7.223   4.545   0.180  0.3686 -0.1096 -0.2348
14771SOL    HW145733   7.244   4.630   0.143  0.8211 -0.3532 -0.5494
14771SOL    HW245734   7.301   4.519   0.228 -0.2114  0.2069  0.9200
14772SOL     OW45735   0.693   7.815   1.632 -0.1407  0.3547 -0.3985
14772SOL    HW145736   0.722   7.735   1.588 -0.4720 -0.0539  0.1204
14772SOL    HW245737   0.702   7.796   1.725  1.6667  1.6007 -0.2506
14773SOL     OW45738   1.406   3.856   0.830 -0.0654 -0.3196 -0.1709
14773SOL    HW145739   1.423   3.929   0.889 -1.3045 -1.4494  1.6579
14773SOL    HW245740   1.493   3.831   0.797  0.3318  2.3480 -1.4078
14774SOL     OW45741   3.248   5.593   4.511  0.2899 -0.3121  0.1331
14774SOL    HW145742   3.197   5.621   4.587 -0.0798  1.5339 -0.7232
14774SOL    HW245743   3.182   5.564   4.448  0.4997 -0.6016  0.0495
14775SOL     OW45744   1.082   2.990   5.036  0.1531  0.0742  0.1412
14775SOL    HW145745   1.122   2.942   5.109 -1.1824 -0.5441  0.4918
14775SOL    HW245746   0.997   2.947   5.022 -0.2045  1.0614 -0.8790
14776SOL     OW45747   3.645   4.765   2.656 -0.7040  0.0361  0.5568
14776SOL    HW145748   3.674   4.847   2.617 -0.7331 -0.4720 -0.5779
14776SOL    HW245749   3.559   4.784   2.694 -1.7113  0.0248 -1.6102
14777SOL     OW45750   4.884   0.356   6.898 -1.0297  0.9833 -0.7184
14777SOL    HW145751   4.851   0.290   6.959 -0.7310 -0.1581 -1.7634
14777SOL    HW245752   4.896   0.309   6.815  0.0428  2.1348 -1.2495
14778SOL     OW45753   5.837   5.858   1.785 -0.3273  0.0586  0.5118
14778SOL    HW145754   5.748   5.877   1.757 -0.3121 -0.1880  0.2930
14778SOL    HW245755   5.848   5.764   1.768 -0.0141  0.0963  0.5030
14779SOL     OW45756   0.956   4.276   4.521 -0.0876  0.7447  0.1283
14779SOL    HW145757   0.862   4.260   4.520  0.2177 -1.5643  0.9583
14779SOL    HW245758   0.992   4.209   4.463  1.1951 -0.2583  1.9632
14780SOL     OW45759   7.846   1.906   6.954 -0.4263  0.6549 -0.4032
14780SOL    HW145760   7.901   1.959   7.012 -0.1337  0.9268 -0.9090
14780SOL    HW245761   7.898   1.828   6.936 -0.2198  0.8863 -0.8374
14781SOL     OW45762   7.985   5.369   5.017 -0.3219 -0.4261 -0.1593
14781SOL    HW145763   7.955   5.369   4.926  0.7270 -1.5354 -0.5197
14781SOL    HW245764   7.944   5.292   5.056 -1.9226  0.8045  0.7483
14782SOL     OW45765   1.193   0.335   2.753  0.5797  0.1678  0.3282
14782SOL    HW145766   1.108   0.343   2.798  0.1802 -2.2493  0.1313
14782SOL    HW245767   1.257   0.326   2.824  0.1908 -1.5960  0.5060
14783SOL     OW45768   0.700   5.814   0.126 -0.0331  0.4171  0.5198
14783SOL    HW145769   0.655   5.860   0.197  2.7403  3.1929  0.7121
14783SOL    HW245770   0.757   5.751   0.170 -0.6360 -0.0991  0.5576
14784SOL     OW45771   2.939   3.765   5.885  0.0551  0.1875 -0.1603
14784SOL    HW145772   2.918   3.809   5.803 -0.5855  0.6350  0.2249
14784SOL    HW245773   2.877   3.693   5.891  0.0215  0.2270 -0.0186
14785SOL     OW45774   3.264   6.784   7.326  0.2069 -0.3057 -0.0906
14785SOL    HW145775   3.341   6.738   7.360  0.8469  1.0499  0.3409
14785SOL    HW245776   3.241   6.846   7.395  0.7340  1.5864 -1.5298
14786SOL     OW45777   5.891   4.021   4.799 -0.2898  0.5406 -0.0418
14786SOL    HW145778   5.906   3.973   4.718 -1.4153 -2.2619  1.2643
14786SOL    HW245779   5.810   4.069   4.784 -1.5772 -1.4903 -0.0617
14787SOL     OW45780   1.959   5.811   7.769 -0.1519  0.2149  0.1253
14787SOL    HW145781   1.913   5.797   7.686  1.3906 -1.5544 -0.5088
14787SOL    HW245782   2.002   5.896   7.758  0.0674 -0.0187 -0.9420
14788SOL     OW45783   4.485   7.296   2.272 -0.1926  0.6751  0.0686
14788SOL    HW145784   4.498   7.387   2.242 -2.6428  0.9637 -0.3491
14788SOL    HW245785   4.534   7.291   2.354  2.1168  1.5526 -1.1420
14789SOL     OW45786   1.445   2.043   0.998  0.2806 -0.3881  0.5534
14789SOL    HW145787   1.360   2.005   0.975 -0.4131  0.7771  1.0764
14789SOL    HW245788   1.476   1.990   1.071 -1.3449  0.8394  2.2311
14790SOL     OW45789   0.990   4.761   2.582  0.7370  0.4085 -0.1015
14790SOL    HW145790   0.939   4.783   2.504 -1.1896 -0.8253  0.7352
14790SOL    HW245791   0.943   4.804   2.654  2.0460  0.8928  0.4983
14791SOL     OW45792   0.787   6.064   6.407  0.1787  0.2255 -0.0136
14791SOL    HW145793   0.736   6.108   6.475  0.4155  0.3830  0.0595
14791SOL    HW245794   0.878   6.078   6.431  0.2790  0.9416 -0.7845
14792SOL     OW45795   0.868   6.957   1.310  0.1694  0.6763 -0.5238
14792SOL    HW145796   0.939   7.021   1.306 -0.5975  1.4963 -1.7845
14792SOL    HW245797   0.807   6.993   1.374  1.0348 -0.2346  0.8726
14793SOL     OW45798   4.532   3.470   4.210  0.2752 -0.0161  0.2694
14793SOL    HW145799   4.470   3.437   4.275  2.6700 -2.4464  1.4813
14793SOL    HW245800   4.477   3.501   4.138 -2.3467 -0.7104  1.8567
14794SOL     OW45801   6.550   0.343   1.212  0.3116  0.3129 -0.1135
14794SOL    HW145802   6.601   0.401   1.156  1.0520 -0.6499 -0.4723
14794SOL    HW245803   6.516   0.276   1.152  2.2644 -1.5285  0.7151
14795SOL     OW45804   7.608   2.757   4.963 -0.1439  0.5872  0.0473
14795SOL    HW145805   7.566   2.773   5.048  1.2661 -0.0214  0.8938
14795SOL    HW245806   7.562   2.681   4.927 -0.1343  0.2634  0.7126
14796SOL     OW45807   6.249   1.841   3.712 -0.6395  0.1995  0.2757
14796SOL    HW145808   6.209   1.849   3.626 -2.1563  0.3148  0.9703
14796SOL    HW245809   6.317   1.908   3.713 -0.4843  0.0750 -0.8875
14797SOL     OW45810   6.471   3.724   0.798  0.2916 -0.1534  0.7245
14797SOL    HW145811   6.457   3.778   0.876  1.0398  1.2686 -0.0940
14797SOL    HW245812   6.401   3.749   0.738  0.1973 -0.6546  0.6186
14798SOL     OW45813   2.888   6.300   6.964  0.0161  0.0222 -0.1042
14798SOL    HW145814   2.872   6.389   6.934 -0.5758  0.0796  0.3644
14798SOL    HW245815   2.946   6.310   7.040 -0.0532  0.0113 -0.0494
14799SOL     OW45816   2.453   4.427   0.247 -0.5527  0.2433 -0.2826
14799SOL    HW145817   2.478   4.459   0.160 -0.8328  0.2045 -0.3800
14799SOL    HW245818   2.393   4.355   0.229 -1.6934  1.1056 -0.0500
14800SOL     OW45819   2.559   2.835   7.765 -0.5729 -0.3139  0.0899
14800SOL    HW145820   2.585   2.815   7.675  1.0522  2.8759 -0.3192
14800SOL    HW245821   2.513   2.757   7.795 -0.4187 -1.8405 -3.1943
14801SOL     OW45822   5.690   5.565   3.797 -0.0968 -0.2580  0.0573
14801SOL    HW145823   5.621   5.590   3.859 -0.1187  0.5077 -0.2674
14801SOL    HW245824   5.748   5.508   3.848 -1.4850 -1.7428  0.0676
14802SOL     OW45825   2.884   5.696   4.971 -0.5076 -0.3811  0.7218
14802SOL    HW145826   2.838   5.776   4.998 -0.2892  0.6420 -1.7520
14802SOL    HW245827   2.890   5.702   4.876  0.9166 -2.6134  0.6018
14803SOL     OW45828   4.228   1.177   4.121  0.2511  0.0497  0.1509
14803SOL    HW145829   4.308   1.229   4.127  0.9374 -0.9243 -0.4179
14803SOL    HW245830   4.257   1.086   4.127 -0.9820 -0.2860  1.6257
14804SOL     OW45831   5.987   2.223   2.622 -0.1304 -0.0115 -0.4020
14804SOL    HW145832   5.967   2.129   2.630 -1.0095  0.2423  0.5422
14804SOL    HW245833   5.956   2.261   2.704  1.3138  0.9341 -0.2611
14805SOL     OW45834   1.374   4.218   0.446 -0.4687  0.4419 -0.4560
14805SOL    HW145835   1.436   4.153   0.479  0.3299  0.6485 -1.5062
14805SOL    HW245836   1.288   4.181   0.465 -0.0408 -0.9948 -1.1443
14806SOL     OW45837   7.958   5.930   6.234 -0.6984 -0.1969 -0.0378
14806SOL    HW145838   7.960   5.926   6.330  1.1801  0.0384 -0.0267
14806SOL    HW245839   7.982   5.841   6.206  1.9633  0.4672 -0.1920
14807SOL     OW45840   6.239   4.384   4.082 -0.2085  0.4572  0.4493
14807SOL    HW145841   6.241   4.455   4.146 -0.6074 -0.2262  1.2527
14807SOL    HW245842   6.296   4.317   4.119  1.6326  1.0357 -1.1772
14808SOL     OW45843   5.209   2.469   3.370 -0.2380 -0.1035  0.0413
14808SOL    HW145844   5.172   2.381   3.379 -0.5694  0.0610  0.2726
14808SOL    HW245845   5.294   2.454   3.328 -0.6378 -0.4636 -0.6666
14809SOL     OW45846   0.865   1.176   6.965  0.2012 -0.3892  0.4257
14809SOL    HW145847   0.800   1.106   6.965 -0.2956  0.0708  0.5072
14809SOL    HW245848   0.949   1.130   6.958 -0.0972 -1.0105  0.8517
14810SOL     OW45849   4.237   4.360   1.714 -0.2422  0.0725 -0.1019
14810SOL    HW145850   4.323   4.330   1.742 -0.5902 -1.1751 -0.3117
14810SOL    HW245851   4.177   4.329   1.782 -0.5391  0.9258  0.0416
14811SOL     OW45852   5.882   7.435   7.214 -0.1490 -0.5729  0.0201
14811SOL    HW145853   5.821   7.495   7.171  2.0235  1.6138 -0.2510
14811SOL    HW245854   5.827   7.364   7.247 -2.4550 -0.2455 -2.7009
14812SOL     OW45855   1.070   4.312   5.542 -0.4264  0.1987  0.6069
14812SOL    HW145856   1.115   4.374   5.484 -1.4451 -0.2329 -0.6779
14812SOL    HW245857   1.135   4.243   5.558  0.6106  1.3751  1.7986
14813SOL     OW45858   7.599   4.149   3.885 -0.3091  0.0322  0.4259
14813SOL    HW145859   7.665   4.133   3.952 -0.2895 -0.5621  0.2627
14813SOL    HW245860   7.590   4.066   3.839 -0.2616  0.4638 -0.3715
14814SOL     OW45861   7.488   7.641   1.839 -0.2033 -0.2136 -0.3984
14814SOL    HW145862   7.395   7.665   1.837 -0.4074 -1.0348 -1.3621
14814SOL    HW245863   7.508   7.614   1.749  0.1966 -2.9178  0.4250
14815SOL     OW45864   4.509   7.766   6.650 -0.2681  0.1470 -0.3826
14815SOL    HW145865   4.577   7.704   6.624 -0.6407 -0.2057 -0.5233
14815SOL    HW245866   4.447   7.714   6.700  0.5210  0.8318  1.4180
14816SOL     OW45867   7.251   6.437   3.500  0.8451  0.6613  0.5213
14816SOL    HW145868   7.221   6.364   3.446  0.1330  1.5285 -0.2831
14816SOL    HW245869   7.218   6.418   3.587 -0.9524  0.9153 -0.0610
14817SOL     OW45870   5.566   1.550   7.688  0.7235  0.3613  0.1020
14817SOL    HW145871   5.541   1.628   7.738  1.7103  0.4269  0.5003
14817SOL    HW245872   5.587   1.583   7.601  2.0237  0.6799  0.5196
14818SOL     OW45873   5.596   7.338   3.445 -0.0434 -0.4194  0.5702
14818SOL    HW145874   5.612   7.433   3.445  1.0485 -0.5572 -1.1084
14818SOL    HW245875   5.519   7.328   3.389 -1.1747 -0.4271  2.0717
14819SOL     OW45876   0.338   3.611   6.155 -0.2559  0.1429 -0.0550
14819SOL    HW145877   0.354   3.625   6.249  1.2031  0.1384 -0.2714
14819SOL    HW245878   0.352   3.698   6.116  1.7740 -0.3482 -0.5502
14820SOL     OW45879   7.513   1.239   3.974  0.5512 -0.5341 -0.0329
14820SOL    HW145880   7.606   1.262   3.977  0.9124 -1.9587  1.2028
14820SOL    HW245881   7.512   1.144   3.964 -0.7563 -0.6110  0.5610
14821SOL     OW45882   1.740   6.862   6.159  0.0641 -0.0038  0.0669
14821SOL    HW145883   1.653   6.901   6.148  0.4800  1.4648  1.4873
14821SOL    HW245884   1.756   6.868   6.253  2.1797  0.8901 -0.3079
14822SOL     OW45885   7.491   5.562   0.463  0.1941 -0.0905 -0.1580
14822SOL    HW145886   7.454   5.629   0.406  1.5016  0.8863  0.1005
14822SOL    HW245887   7.415   5.518   0.502 -0.7339  2.3582  0.9788
14823SOL     OW45888   6.589   6.941   4.243 -0.4087  0.4226  0.4209
14823SOL    HW145889   6.592   6.952   4.148 -1.3629 -0.3028  0.2870
14823SOL    HW245890   6.664   6.886   4.263  0.4023  1.4405  0.2291
14824SOL     OW45891   0.671   3.917   3.878  0.1740 -0.0836  0.2251
14824SOL    HW145892   0.744   3.963   3.836  1.2707 -1.9923 -0.0670
14824SOL    HW245893   0.691   3.824   3.865 -3.0674 -0.7131 -1.2146
14825SOL     OW45894   2.306   6.561   2.978 -0.2765 -0.0091 -0.1440
14825SOL    HW145895   2.270   6.649   2.976 -1.2209 -0.2812  2.1879
14825SOL    HW245896   2.229   6.504   2.989  0.3483 -1.1183 -1.2214
14826SOL     OW45897   5.090   6.254   0.125  0.0441  0.0944 -0.7096
14826SOL    HW145898   5.106   6.174   0.175 -3.1547 -1.1886 -1.5509
14826SOL    HW245899   5.056   6.316   0.189 -1.9937 -0.8486 -0.7982
14827SOL     OW45900   1.422   0.286   0.965  0.4432  0.2844 -0.9487
14827SOL    HW145901   1.511   0.250   0.970 -0.4760 -2.1258 -0.9761
14827SOL    HW245902   1.417   0.325   0.877  2.0608  2.2611 -0.2419
14828SOL     OW45903   0.164   1.443   4.661 -0.3646 -0.0820 -0.0918
14828SOL    HW145904   0.085   1.430   4.714 -0.2274 -1.5723 -0.2090
14828SOL    HW245905   0.158   1.378   4.592 -0.0021  1.1249 -1.3005
14829SOL     OW45906   1.331   7.493   2.479 -0.3614  0.0406 -0.0772
14829SOL    HW145907   1.400   7.462   2.538 -0.5021 -1.5637 -0.6809
14829SOL    HW245908   1.252   7.449   2.510 -0.9806  1.2599  0.1348
14830SOL     OW45909   7.826   1.248   5.005 -0.0144 -0.2919  0.1612
14830SOL    HW145910   7.850   1.187   5.075  1.0133 -1.0280 -0.7970
14830SOL    HW245911   7.731   1.251   5.007 -0.0951 -2.0037  0.2052
14831SOL     OW45912   7.524   3.783   4.451  0.0837 -0.0361 -0.2931
14831SOL    HW145913   7.587   3.835   4.402 -1.0433  1.0986 -0.6061
14831SOL    HW245914   7.546   3.799   4.543  0.6239 -0.1363 -0.4021
14832SOL     OW45915   5.445   1.386   6.912 -0.3443  0.6067 -0.0853
14832SOL    HW145916   5.458   1.473   6.874 -0.9727  0.9947  0.5651
14832SOL    HW245917   5.357   1.389   6.948 -0.6613 -0.5565 -0.7155
14833SOL     OW45918   4.338   3.184   5.015  0.6491 -0.3974 -0.5827
14833SOL    HW145919   4.314   3.183   5.108 -3.3744  1.0957 -1.3949
14833SOL    HW245920   4.314   3.097   4.983  1.6490 -0.7711 -0.3523
14834SOL     OW45921   2.542   1.895   6.541  0.5219  0.0335 -0.2878
14834SOL    HW145922   2.521   1.890   6.448  2.0532  0.2611 -0.6649
14834SOL    HW245923   2.577   1.809   6.563 -0.8355 -0.3769  0.3562
14835SOL     OW45924   7.810   1.638   3.651 -0.2239  0.3391 -0.2042
14835SOL    HW145925   7.733   1.653   3.706 -0.6327 -0.6883 -0.4756
14835SOL    HW245926   7.879   1.692   3.691 -1.2817  1.9627 -0.4616
14836SOL     OW45927   6.614   1.140   5.734 -0.2959  0.4059  0.1929
14836SOL    HW145928   6.520   1.156   5.743 -0.3075  0.0595  0.6976
14836SOL    HW245929   6.621   1.046   5.720  0.0592  0.2173  1.5158
14837SOL     OW45930   7.677   2.681   6.159  0.1215  0.1341  0.4818
14837SOL    HW145931   7.743   2.645   6.101 -1.1928 -0.3295 -0.7988
14837SOL    HW245932   7.652   2.609   6.217  0.1576  0.0743  0.4218
14838SOL     OW45933   5.801   0.861   7.651  0.3100  0.0053  0.3483
14838SOL    HW145934   5.838   0.842   7.737  0.2373 -0.1287  0.3503
14838SOL    HW245935   5.825   0.784   7.598  3.6683  1.6512 -0.8276
14839SOL     OW45936   3.610   4.293   7.549 -0.1214  0.1969 -0.8170
14839SOL    HW145937   3.543   4.348   7.509 -2.7645 -2.5973 -0.6166
14839SOL    HW245938   3.631   4.227   7.482  0.1751 -0.7398  0.1619
14840SOL     OW45939   2.544   7.814   6.132  0.2822  0.1273  0.2060
14840SOL    HW145940   2.588   7.756   6.193  0.2922  1.0934  1.1557
14840SOL    HW245941   2.534   7.896   6.180  0.9596  1.1745 -1.3306
14841SOL     OW45942   7.039   6.815   6.271 -0.3980  0.1711  0.5158
14841SOL    HW145943   7.003   6.854   6.351 -0.8166  0.4984  0.1734
14841SOL    HW245944   7.081   6.887   6.225 -0.1846 -0.0105  0.4255
14842SOL     OW45945   6.529   4.270   0.474 -0.6184  0.0957  0.3208
14842SOL    HW145946   6.449   4.226   0.501 -0.8868 -0.4151 -1.2042
14842SOL    HW245947   6.560   4.314   0.553  0.0980 -3.4068  2.1938
14843SOL     OW45948   6.944   6.594   3.632 -0.0995  0.4761 -0.2575
14843SOL    HW145949   7.037   6.583   3.651 -0.5939 -0.5129  1.8959
14843SOL    HW245950   6.921   6.518   3.579  0.6821  1.7878 -2.6569
14844SOL     OW45951   5.906   3.711   0.824  0.3996  0.0024 -0.1758
14844SOL    HW145952   5.924   3.681   0.735 -0.0689  0.9992 -0.6127
14844SOL    HW245953   5.823   3.668   0.847  1.0626 -1.1294  0.2160
14845SOL     OW45954   1.291   5.370   1.789  0.3589 -0.2826 -0.2651
14845SOL    HW145955   1.263   5.381   1.880 -1.0075 -0.9707 -0.5805
14845SOL    HW245956   1.367   5.312   1.794  3.0180  2.9194  0.7574
14846SOL     OW45957   6.055   4.392   4.397 -0.2931  0.4613  0.1154
14846SOL    HW145958   5.972   4.365   4.358  0.9774 -1.7652 -1.2589
14846SOL    HW245959   6.045   4.374   4.490 -0.5121 -2.3494 -0.3687
14847SOL     OW45960   1.907   1.304   3.954 -0.0236  0.1288 -0.1998
14847SOL    HW145961   1.867   1.379   3.999 -1.4137  0.3358 -1.6676
14847SOL    HW245962   1.998   1.330   3.942 -0.2435  1.1663  0.1925
14848SOL     OW45963   0.840   1.732   1.029  0.4093 -0.0443  0.1215
14848SOL    HW145964   0.879   1.741   0.942  2.1325 -0.5328  0.8026
14848SOL    HW245965   0.785   1.809   1.039 -0.8909 -0.6350 -1.9045
14849SOL     OW45966   7.223   4.901   7.628 -0.4821  0.2500 -0.5330
14849SOL    HW145967   7.230   4.914   7.723  0.8053  1.1253 -0.7184
14849SOL    HW245968   7.160   4.968   7.599 -1.3674 -0.4334 -0.2355
14850SOL     OW45969   0.123   0.605   3.784  0.9734 -0.2178 -0.2902
14850SOL    HW145970   0.119   0.511   3.800  2.3724 -0.4615 -1.2058
14850SOL    HW245971   0.052   0.641   3.837  1.2147 -1.6455  1.0828
14851SOL     OW45972   5.496   3.342   3.257  0.1879  0.0398  0.2279
14851SOL    HW145973   5.401   3.353   3.255  0.4432  3.9488 -3.1836
14851SOL    HW245974   5.526   3.397   3.329 -0.0147  0.0526  0.3007
14852SOL     OW45975   5.774   2.665   1.582  0.2491 -0.0348 -0.1772
14852SOL    HW145976   5.722   2.632   1.655 -0.1824  0.0235 -0.4579
14852SOL    HW245977   5.720   2.650   1.505  1.8520 -2.8229 -0.9056
14853SOL     OW45978   3.526   1.865   0.244 -0.1736 -0.1899  0.2800
14853SOL    HW145979   3.446   1.849   0.195 -0.3249 -0.8486  0.7225
14853SOL    HW245980   3.556   1.778   0.270  1.4398 -0.0698 -1.0334
14854SOL     OW45981   4.376   0.014   3.906 -0.5903  0.4843  0.0150
14854SOL    HW145982   4.471   0.019   3.916 -0.6150  1.0383  0.0152
14854SOL    HW245983   4.350  -0.061   3.959 -0.0229 -0.3936 -0.9284
14855SOL     OW45984   4.373   3.439   3.645  0.1409 -0.3293 -0.6770
14855SOL    HW145985   4.438   3.393   3.592 -0.6803 -1.6613 -0.5724
14855SOL    HW245986   4.299   3.452   3.585  0.0397  0.0923 -0.4620
14856SOL     OW45987   5.169   0.777   2.692  0.6249  0.0913 -0.2943
14856SOL    HW145988   5.219   0.812   2.619  1.3378  0.9686  0.5795
14856SOL    HW245989   5.090   0.741   2.653  1.6271 -0.7390 -1.6397
14857SOL     OW45990   7.072   4.573   4.517 -0.2465  0.2761 -0.0100
14857SOL    HW145991   6.995   4.602   4.468  0.0298  1.0213 -0.0241
14857SOL    HW245992   7.058   4.479   4.531  0.0915 -0.1728 -2.2795
14858SOL     OW45993   1.913   3.371   7.817  0.3701 -0.3887 -0.1480
14858SOL    HW145994   1.879   3.406   7.900 -1.3852  2.0515 -1.7430
14858SOL    HW245995   2.007   3.364   7.831  0.1816  0.4392  1.8979
14859SOL     OW45996   4.762   4.159   7.207 -0.0873 -0.2047 -0.5212
14859SOL    HW145997   4.668   4.162   7.191 -0.0897 -2.2577 -1.1225
14859SOL    HW245998   4.771   4.140   7.300 -0.2614  0.0244 -0.4575
14860SOL     OW45999   3.090   2.476   6.419 -0.1688  0.0516 -0.3886
14860SOL    HW146000   3.043   2.558   6.430 -1.0056 -0.4930  0.2232
14860SOL    HW246001   3.076   2.452   6.328  2.9694  2.2849 -1.6497
14861SOL     OW46002   6.604   4.285   4.736 -0.4837 -0.4219 -0.9133
14861SOL    HW146003   6.578   4.307   4.825 -0.4816  1.5065 -1.3483
14861SOL    HW246004   6.600   4.189   4.733  0.5669 -0.6171  1.4504
14862SOL     OW46005   3.254   5.986   2.080 -0.5351 -0.6610 -0.0398
14862SOL    HW146006   3.272   6.051   2.148 -2.1646 -2.2569  2.0100
14862SOL    HW246007   3.320   5.918   2.093 -0.1503 -0.4593 -0.8303
14863SOL     OW46008   1.950   0.216   4.374  0.2623 -0.0144 -0.2232
14863SOL    HW146009   1.999   0.180   4.300 -0.3379  0.2215 -0.7450
14863SOL    HW246010   1.985   0.305   4.385  0.9897 -0.3636  0.3727
14864SOL     OW46011   5.070   4.499   4.609  0.1700 -0.0726  0.2085
14864SOL    HW146012   5.051   4.585   4.648 -1.6860 -0.8435  1.1228
14864SOL    HW246013   5.023   4.500   4.526  0.1276 -0.2046  0.2310
14865SOL     OW46014   3.827   6.478   3.542 -0.3151  0.2840 -0.1460
14865SOL    HW146015   3.798   6.568   3.555  0.8600  0.7214 -0.3477
14865SOL    HW246016   3.823   6.465   3.447  0.5177  0.5044 -0.2229
14866SOL     OW46017   6.483   2.968   7.449 -0.0234 -0.1036 -0.3841
14866SOL    HW146018   6.544   3.032   7.413 -0.0083 -0.0028 -0.1806
14866SOL    HW246019   6.423   3.019   7.503  1.0347 -0.4498  1.1998
14867SOL     OW46020   3.470   2.746   0.205 -0.2769  0.8873 -0.2278
14867SOL    HW146021   3.406   2.678   0.181  0.6153  0.2721 -0.9283
14867SOL    HW246022   3.477   2.740   0.300 -0.4261  0.1950 -0.2554
14868SOL     OW46023   6.551   2.453   3.710 -0.1783  0.0357  0.5732
14868SOL    HW146024   6.566   2.535   3.757 -1.0527  0.7070 -0.2693
14868SOL    HW246025   6.631   2.439   3.660 -0.2251  0.6676  0.3083
14869SOL     OW46026   4.193   6.579   3.463 -0.2370  0.1415  0.6525
14869SOL    HW146027   4.193   6.640   3.537 -1.0299 -0.1861  0.9387
14869SOL    HW246028   4.160   6.497   3.500 -1.1159  0.1054 -0.1673
14870SOL     OW46029   7.556   5.507   1.492 -0.4356 -0.4040  0.3583
14870SOL    HW146030   7.597   5.550   1.418  0.2171  0.2457  1.0815
14870SOL    HW246031   7.566   5.568   1.565  2.3695 -2.5126  1.9556
14871SOL     OW46032   4.964   4.008   2.964 -0.2784  0.4223  0.3649
14871SOL    HW146033   4.920   4.064   2.900 -2.7361 -3.3085 -1.5796
14871SOL    HW246034   4.893   3.966   3.013  1.2136 -2.3256  0.3785
14872SOL     OW46035   2.926   8.030   0.798  0.2853 -0.3136  0.1224
14872SOL    HW146036   2.933   7.966   0.726 -0.2934  0.7976 -0.9586
14872SOL    HW246037   3.008   8.021   0.845  1.2746 -0.1548 -1.4864
14873SOL     OW46038   0.726   5.622   7.317 -0.1401  0.3662  0.3279
14873SOL    HW146039   0.645   5.574   7.333 -0.5266  0.7290 -0.5074
14873SOL    HW246040   0.736   5.621   7.222  1.0986 -0.0984  0.4413
14874SOL     OW46041   1.067   6.860   5.378 -0.0402  0.1866 -0.4389
14874SOL    HW146042   1.076   6.767   5.356  0.1296 -0.0485  0.6085
14874SOL    HW246043   0.973   6.876   5.381 -0.0992 -0.3233  0.8732
14875SOL     OW46044   6.716   5.558   6.453 -0.6504 -0.0671  0.3997
14875SOL    HW146045   6.681   5.508   6.379  0.5740 -0.9714  0.4078
14875SOL    HW246046   6.714   5.649   6.423 -0.5275 -0.3821 -0.6140
14876SOL     OW46047   7.750   1.668   1.449 -0.0304 -0.4009 -0.1779
14876SOL    HW146048   7.810   1.596   1.432  0.1012 -0.2589 -0.3144
14876SOL    HW246049   7.750   1.719   1.368 -1.5761 -1.2989 -0.7829
14877SOL     OW46050   3.228   1.698   2.913  0.2981  0.1762  0.9770
14877SOL    HW146051   3.197   1.655   2.833 -0.0774  1.3628  0.4561
14877SOL    HW246052   3.282   1.632   2.957 -0.2142 -0.7941  0.1919
14878SOL     OW46053   0.469   0.522   6.852  0.1373  0.0032 -0.2069
14878SOL    HW146054   0.421   0.482   6.925 -2.3606  1.5923 -0.8799
14878SOL    HW246055   0.430   0.609   6.842  3.3204  1.5237 -0.7293
14879SOL     OW46056   4.782   1.220   3.688  0.3608 -0.1590  0.0169
14879SOL    HW146057   4.809   1.135   3.723  1.5560  1.1773  2.6236
14879SOL    HW246058   4.747   1.267   3.764 -3.2388  0.6638 -1.9199
14880SOL     OW46059   3.938   3.807   5.395  0.8010  0.3940  0.7061
14880SOL    HW146060   3.848   3.835   5.377  0.5299 -0.8007  0.0497
14880SOL    HW246061   3.969   3.773   5.311  1.8166  0.6599  0.9681
14881SOL     OW46062   6.112   7.742   5.956 -0.4030  0.3893  0.5251
14881SOL    HW146063   6.165   7.682   5.903 -0.5006  0.5794  0.2067
14881SOL    HW246064   6.111   7.703   6.043 -1.5728 -0.7820  0.0235
14882SOL     OW46065   0.791   7.003   5.122  0.0919  0.1243 -0.4143
14882SOL    HW146066   0.801   6.917   5.162  1.7386 -0.0366 -1.0918
14882SOL    HW246067   0.697   7.019   5.122 -0.2827 -1.8453 -0.6535
14883SOL     OW46068   2.644   1.301   1.868 -0.4060 -0.1736 -0.0677
14883SOL    HW146069   2.584   1.257   1.808 -0.0047  0.0965 -0.6869
14883SOL    HW246070   2.591   1.324   1.944 -1.0179 -0.1936 -0.4837
14884SOL     OW46071   5.439   5.933   5.763  0.1376  0.4647 -0.1087
14884SOL    HW146072   5.437   6.024   5.795 -2.0035 -0.0208  1.3750
14884SOL    HW246073   5.389   5.935   5.681  0.0916  0.6256 -0.0769
14885SOL     OW46074   1.719   6.206   3.781  0.6483 -0.0164 -0.1755
14885SOL    HW146075   1.636   6.253   3.794  1.0281  0.9806 -1.2455
14885SOL    HW246076   1.764   6.214   3.865  0.0642  0.2582  0.1179
14886SOL     OW46077   4.240   7.698   1.806 -0.3349  0.1732  0.4244
14886SOL    HW146078   4.233   7.646   1.885  2.3857  1.1621  1.4498
14886SOL    HW246079   4.183   7.773   1.821 -2.7923 -1.4455 -0.2682
14887SOL     OW46080   1.469   5.694   3.405  0.3796  0.8499 -0.3743
14887SOL    HW146081   1.471   5.734   3.492  0.6871 -1.5035  0.7895
14887SOL    HW246082   1.381   5.657   3.397  1.6083 -2.9150  1.0212
14888SOL     OW46083   5.708   4.085   5.881  0.4913  0.6356  0.1531
14888SOL    HW146084   5.794   4.105   5.846  0.4177  1.5541  0.4552
14888SOL    HW246085   5.689   4.158   5.940 -0.7099  0.7221 -0.3065
14889SOL     OW46086   7.094   3.178   1.506  0.1954 -0.4339 -0.3106
14889SOL    HW146087   7.180   3.140   1.487  1.5970  1.0388  2.4787
14889SOL    HW246088   7.042   3.105   1.540  0.1356 -1.4168 -2.3613
14890SOL     OW46089   5.619   4.027   7.450  0.3542 -0.3830 -0.4853
14890SOL    HW146090   5.679   3.954   7.448  0.2488 -0.4553 -1.8756
14890SOL    HW246091   5.675   4.105   7.455  0.4799 -0.5274  0.4761
14891SOL     OW46092   7.718   7.131   1.943 -0.1064  0.0340 -0.2552
14891SOL    HW146093   7.811   7.150   1.938 -0.2768  1.1413  0.6005
14891SOL    HW246094   7.684   7.189   2.010 -1.1201 -1.5284  0.6643
14892SOL     OW46095   5.247   1.679   7.702 -0.0364 -0.8794  0.2501
14892SOL    HW146096   5.236   1.685   7.607  0.3601 -0.6096  0.2230
14892SOL    HW246097   5.218   1.590   7.723 -0.4465 -0.8284 -0.0761
14893SOL     OW46098   1.661   2.189   7.888  0.5359 -0.5770 -0.2110
14893SOL    HW146099   1.696   2.129   7.954  0.7068  0.9566  1.1711
14893SOL    HW246100   1.739   2.231   7.850  0.4487 -1.6086 -1.5829
14894SOL     OW46101   1.601   2.812   7.885 -0.1184  0.0746 -0.2304
14894SOL    HW146102   1.691   2.780   7.881 -0.4917 -1.1375  0.6977
14894SOL    HW246103   1.547   2.734   7.899 -1.1291  0.9628  1.2523
14895SOL     OW46104   4.155   5.373   3.591 -0.0676  0.4883  0.5071
14895SOL    HW146105   4.230   5.429   3.612 -0.6649  0.8712  1.6776
14895SOL    HW246106   4.117   5.351   3.675 -1.4132  0.4857 -0.0851
14896SOL     OW46107   5.660   0.463   4.503 -0.3749 -0.1994 -0.0229
14896SOL    HW146108   5.665   0.424   4.591  1.1704 -1.1030 -0.4798
14896SOL    HW246109   5.720   0.538   4.507 -1.3059  0.5594  0.0575
14897SOL     OW46110   3.152   3.688   1.851 -0.0488 -0.7003  0.1130
14897SOL    HW146111   3.122   3.600   1.871 -0.9950 -0.7077 -1.1542
14897SOL    HW246112   3.122   3.704   1.761  0.7251  0.6432  0.0498
14898SOL     OW46113   5.722   0.950   1.306 -0.2926 -0.2580 -0.0297
14898SOL    HW146114   5.717   1.044   1.287  0.8455 -0.3443 -0.8410
14898SOL    HW246115   5.810   0.925   1.278 -0.8230 -1.7090 -0.4358
14899SOL     OW46116   5.343   2.234   6.738 -0.1814  0.0630  0.2337
14899SOL    HW146117   5.322   2.313   6.689  0.1089  1.3102  1.9920
14899SOL    HW246118   5.436   2.242   6.758 -0.0996 -0.8309  0.2652
14900SOL     OW46119   5.776   6.966   3.286 -0.0783 -0.1568 -0.4594
14900SOL    HW146120   5.862   7.000   3.260  0.1239 -0.6850 -0.5032
14900SOL    HW246121   5.766   6.995   3.377 -0.4129  0.9692 -0.8375
14901SOL     OW46122   4.668   6.546   3.083  0.6151  1.4796  1.0394
14901SOL    HW146123   4.598   6.510   3.138  2.0550 -1.6987  1.0056
14901SOL    HW246124   4.748   6.505   3.115  1.7842  0.9314 -2.1410
14902SOL     OW46125   1.255   0.607   2.663 -0.9572  0.9298 -0.0958
14902SOL    HW146126   1.223   0.516   2.665  0.6804  0.3272  1.0304
14902SOL    HW246127   1.230   0.644   2.747  0.4524  0.7047  0.4658
14903SOL     OW46128   2.778   5.708   1.633 -0.2936  0.2339 -0.2472
14903SOL    HW146129   2.790   5.799   1.605 -1.4911  0.0247 -1.5301
14903SOL    HW246130   2.771   5.714   1.729  0.7081  1.3548 -0.2247
14904SOL     OW46131   1.856   0.491   3.658 -0.3925 -0.0010  0.2113
14904SOL    HW146132   1.870   0.414   3.604 -1.0174  0.3046 -0.4056
14904SOL    HW246133   1.908   0.560   3.615  0.5327 -0.1801  1.0185
14905SOL     OW46134   2.104   1.254   7.424 -0.1788 -0.1081 -0.0735
14905SOL    HW146135   2.040   1.301   7.370  0.6555  0.4109 -0.6351
14905SOL    HW246136   2.066   1.254   7.511 -0.4600  1.1519 -0.1796
14906SOL     OW46137   3.358   7.949   5.720 -0.0418 -0.5858  0.4209
14906SOL    HW146138   3.376   8.042   5.728 -0.1446 -0.5510  0.2250
14906SOL    HW246139   3.356   7.917   5.811  1.6040 -0.6978  0.4509
14907SOL     OW46140   2.299   5.376   4.888  0.6784 -0.1506 -0.3594
14907SOL    HW146141   2.358   5.442   4.851  1.0804  0.2869  0.9975
14907SOL    HW246142   2.347   5.339   4.961 -0.6316  0.0846  0.6690
14908SOL     OW46143   1.087   2.274   6.134  0.1678 -0.4278 -0.2758
14908SOL    HW146144   1.147   2.209   6.099  1.1659  0.3943 -0.1295
14908SOL    HW246145   1.087   2.345   6.069  0.4308  0.1852  0.3724
14909SOL     OW46146   1.228   3.110   1.812 -0.1231 -0.2771 -0.2837
14909SOL    HW146147   1.219   3.018   1.785 -1.1626  0.1287 -1.4287
14909SOL    HW246148   1.319   3.131   1.793  0.5688 -1.4899  1.4578
14910SOL     OW46149   7.044   0.011   2.608 -0.3436  0.0206 -0.4552
14910SOL    HW146150   7.057   0.015   2.703  0.9632  1.9587 -0.6582
14910SOL    HW246151   6.951  -0.011   2.598 -0.4479 -0.5329  1.2481
14911SOL     OW46152   4.858   2.068   2.864 -0.3698  0.0391 -0.8466
14911SOL    HW146153   4.807   1.992   2.836  0.9359 -1.0273 -0.4455
14911SOL    HW246154   4.793   2.138   2.874 -1.5601 -0.9134 -1.5566
14912SOL     OW46155   2.799   2.125   4.170 -0.2532 -0.3036  0.1295
14912SOL    HW146156   2.733   2.056   4.170 -1.5079  0.8519  0.2129
14912SOL    HW246157   2.810   2.148   4.078  0.5282 -0.9195  0.0553
14913SOL     OW46158   4.576   7.691   3.763  0.0787  0.4105 -0.0433
14913SOL    HW146159   4.660   7.737   3.751 -0.7800  2.1017  0.1903
14913SOL    HW246160   4.510   7.759   3.754 -1.2779 -0.8374  0.1351
14914SOL     OW46161   6.715   3.739   2.307 -0.9530  0.1745 -0.8550
14914SOL    HW146162   6.624   3.713   2.294 -0.9335  0.3239 -1.2753
14914SOL    HW246163   6.766   3.663   2.279 -0.9858 -0.8675  1.5970
14915SOL     OW46164   7.927   5.127   2.564 -0.5351  0.0718 -0.1480
14915SOL    HW146165   7.833   5.146   2.562 -0.5213  0.0730 -1.0673
14915SOL    HW246166   7.961   5.162   2.482  0.4847  1.0889  0.6753
14916SOL     OW46167   4.941   0.148   0.897 -0.3970 -0.0253 -0.0887
14916SOL    HW146168   4.929   0.054   0.912 -1.1666  0.2153  0.9447
14916SOL    HW246169   5.017   0.153   0.838  0.2212 -1.2507  0.5445
14917SOL     OW46170   7.733   7.663   3.826 -0.1358 -0.0418 -0.1708
14917SOL    HW146171   7.809   7.720   3.812  0.0480 -0.3171 -0.3075
14917SOL    HW246172   7.761   7.577   3.793 -0.7401  0.0040 -0.8321
14918SOL     OW46173   4.545   0.525   1.721 -0.6253  0.1002 -0.2204
14918SOL    HW146174   4.509   0.480   1.645 -0.3135  0.1192 -0.3849
14918SOL    HW246175   4.557   0.457   1.786  2.6515 -0.7354 -1.4615
14919SOL     OW46176   3.882   2.319   3.903 -0.5997  0.2668  0.3260
14919SOL    HW146177   3.805   2.320   3.845  1.7220  0.9778 -2.9873
14919SOL    HW246178   3.877   2.402   3.950 -1.3462  0.7495 -0.5614
14920SOL     OW46179   2.014   2.792   2.903  0.5465 -0.0797 -0.3140
14920SOL    HW146180   2.056   2.708   2.920  0.6077  0.0449  0.1772
14920SOL    HW246181   1.930   2.769   2.863 -0.1741 -0.4629  1.3474
14921SOL     OW46182   6.424   1.780   2.575  0.2555 -0.1773 -0.1692
14921SOL    HW146183   6.477   1.821   2.643  1.4728 -2.1890  0.1623
14921SOL    HW246184   6.358   1.730   2.624  1.6372 -2.3043 -0.3409
14922SOL     OW46185   7.696   1.651   7.518  0.1956 -0.1008  0.0399
14922SOL    HW146186   7.691   1.558   7.540 -0.5887 -0.0620  0.0427
14922SOL    HW246187   7.781   1.679   7.553  0.2792 -0.7311  0.3588
14923SOL     OW46188   6.260   2.925   2.407 -0.1748  0.3784 -0.2665
14923SOL    HW146189   6.180   2.976   2.395 -0.7107 -0.4626 -0.3864
14923SOL    HW246190   6.237   2.861   2.474  0.4837  0.2967 -0.1154
14924SOL     OW46191   3.608   1.185   4.226  0.6031 -0.6189 -0.0878
14924SOL    HW146192   3.628   1.104   4.272 -0.0329 -0.8889 -0.2620
14924SOL    HW246193   3.645   1.254   4.280 -0.0760 -0.9322  0.7983
14925SOL     OW46194   6.383   2.000   3.283 -0.3092  0.0998 -0.7954
14925SOL    HW146195   6.327   1.955   3.220 -0.7450  0.1211 -0.4291
14925SOL    HW246196   6.349   2.089   3.287  0.1538  0.2903 -1.0451
14926SOL     OW46197   2.772   4.503   4.007 -0.2960 -0.4157 -0.2525
14926SOL    HW146198   2.790   4.488   3.914 -1.8778  1.3651 -0.9041
14926SOL    HW246199   2.834   4.573   4.032  0.0427 -0.8064  0.0240
14927SOL     OW46200   7.031   7.235   5.164  0.3579 -0.1737 -0.2397
14927SOL    HW146201   7.079   7.174   5.221 -0.8979  0.4593  1.6085
14927SOL    HW246202   6.942   7.199   5.160  0.3956 -0.1531 -1.7845
14928SOL     OW46203   1.412   2.024   4.537 -0.6240 -0.2590  0.3581
14928SOL    HW146204   1.398   2.107   4.582  1.4680  0.9626 -1.0430
14928SOL    HW246205   1.362   2.031   4.456  0.6690  0.3207 -0.4365
14929SOL     OW46206   2.398   0.612   2.548  0.1201 -0.4127  0.1535
14929SOL    HW146207   2.437   0.550   2.610  0.6240 -0.1952  0.0588
14929SOL    HW246208   2.316   0.570   2.521  0.8454 -1.4351 -0.5535
14930SOL     OW46209   0.554   4.800   4.562 -1.1927  0.0719  0.7791
14930SOL    HW146210   0.558   4.706   4.579  1.2663  0.0038  0.1397
14930SOL    HW246211   0.610   4.839   4.628 -1.1377  0.9653  0.2238
14931SOL     OW46212   3.216   7.989   2.566  0.1353  0.6772  0.0868
14931SOL    HW146213   3.293   8.032   2.528  0.4913 -1.1817 -1.4824
14931SOL    HW246214   3.141   8.027   2.519  0.1597  1.7722  0.9114
14932SOL     OW46215   2.116   4.511   6.618  0.4660 -0.3075 -0.0248
14932SOL    HW146216   2.056   4.439   6.638 -0.4617  0.2056 -0.8734
14932SOL    HW246217   2.092   4.579   6.681 -0.2684  0.1179 -0.7481
14933SOL     OW46218   5.062   2.970   6.361 -0.1894  0.3856  0.4695
14933SOL    HW146219   5.032   2.920   6.437  0.8427 -2.2114 -0.7104
14933SOL    HW246220   5.154   2.991   6.381 -0.1710  0.4592  0.3083
14934SOL     OW46221   7.851   6.882   3.820  0.0052 -0.0961  0.0323
14934SOL    HW146222   7.869   6.788   3.828  0.6207  0.1607  2.8992
14934SOL    HW246223   7.761   6.892   3.849  0.2677  0.2604  0.7720
14935SOL     OW46224   7.575   2.024   3.429  0.0400 -0.4296  0.1538
14935SOL    HW146225   7.661   1.991   3.404 -0.3812 -2.7624  1.5431
14935SOL    HW246226   7.594   2.104   3.478  1.3282 -0.3009 -0.5052
14936SOL     OW46227   4.075   1.008   0.733 -0.0864  0.0550  0.0340
14936SOL    HW146228   4.146   0.974   0.787 -0.3681 -0.8229 -0.1234
14936SOL    HW246229   4.044   0.932   0.684 -0.7901  0.5326 -0.2815
14937SOL     OW46230   5.759   2.751   8.002 -0.0416  0.2786  0.8054
14937SOL    HW146231   5.686   2.770   7.943  0.7337 -1.5282 -0.8677
14937SOL    HW246232   5.799   2.672   7.965  1.8805  0.3872  2.4980
14938SOL     OW46233   5.176   0.824   0.723 -0.0178 -0.1335 -0.2905
14938SOL    HW146234   5.264   0.833   0.760  0.1848 -0.3046 -0.7329
14938SOL    HW246235   5.167   0.900   0.666 -0.9375  1.0247  1.3119
14939SOL     OW46236   6.186   7.547   1.121  0.3251 -0.2803 -0.0386
14939SOL    HW146237   6.147   7.618   1.171  0.4763 -0.9671  1.0887
14939SOL    HW246238   6.280   7.558   1.133  0.6887  1.9420 -3.5263
14940SOL     OW46239   4.953   6.089   7.538 -0.2844 -0.4675  0.2406
14940SOL    HW146240   4.989   6.158   7.483  0.9179 -0.6613  0.7606
14940SOL    HW246241   4.865   6.073   7.503 -1.0726  2.1332  0.8067
14941SOL     OW46242   0.495   6.627   0.797 -0.0649 -0.0647 -0.1963
14941SOL    HW146243   0.469   6.667   0.714  1.6318  0.1979 -0.6397
14941SOL    HW246244   0.587   6.651   0.807  0.6079 -2.5958  0.2725
14942SOL     OW46245   7.949   5.287   1.957 -0.6070  0.3576  0.6626
14942SOL    HW146246   8.029   5.334   1.979  0.8951 -2.5150  1.7990
14942SOL    HW246247   7.953   5.277   1.862  1.0967 -0.8312  0.8190
14943SOL     OW46248   5.985   6.035   0.473 -0.3096 -0.1966  0.2336
14943SOL    HW146249   5.945   6.053   0.388  0.3150  1.7301  0.2904
14943SOL    HW246250   6.079   6.032   0.455 -0.1712  0.2049  0.8391
14944SOL     OW46251   6.582   2.727   3.825 -0.7580 -0.3422 -0.6641
14944SOL    HW146252   6.496   2.765   3.842 -0.4993 -0.1834  0.3159
14944SOL    HW246253   6.615   2.776   3.749 -1.8000 -0.8635 -1.4765
14945SOL     OW46254   7.374   0.094   3.811 -0.0607  0.1892  0.0141
14945SOL    HW146255   7.459   0.118   3.848 -0.5272  1.0532  0.5821
14945SOL    HW246256   7.378  -0.001   3.800  1.0799  0.2536 -0.2528
14946SOL     OW46257   5.082   4.297   2.215  0.3388  0.6363 -0.6716
14946SOL    HW146258   5.006   4.275   2.161 -0.0914  1.0156 -0.2336
14946SOL    HW246259   5.055   4.375   2.263  0.2673 -0.3576  0.9717
14947SOL     OW46260   2.497   2.957   6.602  0.3102 -0.1300  0.5303
14947SOL    HW146261   2.477   2.959   6.696 -1.7012 -0.1951  0.1439
14947SOL    HW246262   2.420   2.995   6.561  1.6621  0.9974 -1.0503
14948SOL     OW46263   5.390   2.765   3.452 -0.2141  0.1510 -0.3681
14948SOL    HW146264   5.485   2.751   3.455 -0.1490  0.7385  1.2512
14948SOL    HW246265   5.374   2.807   3.367  0.9526 -0.0301 -0.6938
14949SOL     OW46266   4.538   7.840   1.940 -0.1536 -0.0959 -0.0534
14949SOL    HW146267   4.574   7.752   1.928  0.9191  0.1337  1.3053
14949SOL    HW246268   4.520   7.846   2.034  0.5078  1.3890  0.0006
14950SOL     OW46269   4.103   7.125   3.507  0.0600  0.0204  0.0018
14950SOL    HW146270   4.139   7.180   3.437 -0.6460  1.5955  0.8333
14950SOL    HW246271   4.165   7.137   3.579 -0.1501 -0.2124  0.2180
14951SOL     OW46272   7.694   2.252   3.572 -0.0500  0.2373  0.6004
14951SOL    HW146273   7.605   2.281   3.590 -0.0647  1.1608 -0.8176
14951SOL    HW246274   7.705   2.174   3.627 -2.2603 -0.8097 -0.2805
14952SOL     OW46275   4.843   0.415   6.080 -0.4175  0.2678 -0.0352
14952SOL    HW146276   4.783   0.342   6.094  0.4063 -0.3154  0.5652
14952SOL    HW246277   4.850   0.423   5.985 -0.1521 -0.7526 -0.1144
14953SOL     OW46278   5.143   3.342   1.185 -0.0859 -0.8457 -0.4301
14953SOL    HW146279   5.112   3.288   1.258 -0.7622 -1.8498 -1.4222
14953SOL    HW246280   5.223   3.383   1.217 -1.7195  0.8202  1.7923
14954SOL     OW46281   5.708   6.515   2.350 -0.3202  0.1330  0.6802
14954SOL    HW146282   5.634   6.463   2.320 -0.3696  0.9282 -0.6792
14954SOL    HW246283   5.684   6.542   2.439 -1.7124  0.4503  0.2290
14955SOL     OW46284   3.358   6.656   0.824 -0.6845  0.0448  0.2072
14955SOL    HW146285   3.400   6.581   0.782 -0.7317 -1.6962  3.0285
14955SOL    HW246286   3.264   6.640   0.813 -0.6967 -0.4056  0.9365
14956SOL     OW46287   7.021   3.650   7.686 -0.1426 -0.1433 -0.5377
14956SOL    HW146288   7.000   3.738   7.718 -2.0629 -0.6471 -0.3008
14956SOL    HW246289   6.989   3.591   7.753  0.2109 -1.0802 -1.1600
14957SOL     OW46290   3.502   2.100   1.375  0.5010 -0.4354  0.2954
14957SOL    HW146291   3.424   2.156   1.367  0.6778  0.1934  2.4866
14957SOL    HW246292   3.468   2.014   1.398  0.4160 -0.4224  0.2216
14958SOL     OW46293   1.792   7.311   2.844 -0.1128  0.0746 -0.3284
14958SOL    HW146294   1.773   7.313   2.938  1.1889 -0.1347 -0.0282
14958SOL    HW246295   1.867   7.252   2.837  0.3467  0.7518 -1.3944
14959SOL     OW46296   2.504   3.128   2.533  0.3132  0.1815  0.0155
14959SOL    HW146297   2.427   3.161   2.579 -0.4015  0.0603 -1.0797
14959SOL    HW246298   2.564   3.101   2.604 -0.8627 -0.2429  0.8845
14960SOL     OW46299   3.302   3.477   0.248 -0.6408  0.3826  0.0770
14960SOL    HW146300   3.235   3.542   0.268  0.8311  1.6171  1.2900
14960SOL    HW246301   3.324   3.492   0.156 -2.7953 -0.8400 -0.7033
14961SOL     OW46302   2.061   7.137   1.487 -0.4428  0.3291 -0.3118
14961SOL    HW146303   2.036   7.227   1.467 -1.4517  0.1449  0.0461
14961SOL    HW246304   2.146   7.126   1.444 -0.0004  1.6424  0.1713
14962SOL     OW46305   0.063   2.156   5.312 -0.0881  0.2814 -0.0708
14962SOL    HW146306   0.071   2.238   5.263 -1.3069  0.0607 -0.6618
14962SOL    HW246307   0.119   2.095   5.264 -0.1604  0.4369 -0.3572
14963SOL     OW46308   0.855   2.305   3.120 -0.6088 -0.0412  0.2520
14963SOL    HW146309   0.819   2.217   3.132  1.1722 -0.8109  0.3190
14963SOL    HW246310   0.831   2.328   3.030 -0.3110 -1.0036 -0.0922
14964SOL     OW46311   2.535   3.616   1.171  0.3109  0.2720  0.3906
14964SOL    HW146312   2.608   3.639   1.113  0.5062  0.8565  0.8613
14964SOL    HW246313   2.478   3.562   1.117  0.8521  0.2092 -0.1298
14965SOL     OW46314   5.309   1.402   0.596 -0.0075 -0.0833  0.7819
14965SOL    HW146315   5.235   1.341   0.595  1.3454 -1.7963 -0.2585
14965SOL    HW246316   5.373   1.363   0.536  1.3705  1.8225  0.9311
14966SOL     OW46317   1.216   0.511   5.486 -0.2007 -0.7501  0.1281
14966SOL    HW146318   1.147   0.513   5.553 -0.1853 -1.9430  0.2010
14966SOL    HW246319   1.214   0.421   5.453  0.8840 -0.6120 -0.3303
14967SOL     OW46320   7.408   6.117   6.509 -0.3903  0.1175 -0.0955
14967SOL    HW146321   7.491   6.087   6.473 -0.8014 -0.6144 -0.4657
14967SOL    HW246322   7.423   6.208   6.533 -0.7185  1.4952 -4.2895
14968SOL     OW46323   2.563   2.862   7.191 -0.3535  0.3191 -0.1004
14968SOL    HW146324   2.502   2.934   7.177 -1.0875  0.3155  2.6902
14968SOL    HW246325   2.650   2.903   7.185 -0.7226  1.1286  0.0117
14969SOL     OW46326   0.481   2.635   6.603  0.0204 -0.3280 -0.5128
14969SOL    HW146327   0.448   2.545   6.598 -0.9059 -0.0708  0.4793
14969SOL    HW246328   0.406   2.685   6.635  0.1906  1.0037 -2.0865
14970SOL     OW46329   5.560   5.382   1.738 -0.0669 -0.0445  0.3471
14970SOL    HW146330   5.596   5.331   1.666 -1.3122 -1.6683  0.8247
14970SOL    HW246331   5.626   5.378   1.807  1.6876  2.5222 -1.0114
14971SOL     OW46332   7.892   5.629   6.278  0.7320  0.6717  0.0856
14971SOL    HW146333   7.910   5.588   6.193 -0.3455 -0.0311  0.1770
14971SOL    HW246334   7.798   5.619   6.289  0.9038  0.4712  1.5121
14972SOL     OW46335   6.928   5.559   1.562 -0.0502  0.4768 -0.0792
14972SOL    HW146336   6.997   5.536   1.624 -0.3509  1.7331  0.7676
14972SOL    HW246337   6.856   5.499   1.582 -0.2012  0.9723  0.9249
14973SOL     OW46338   3.596   5.369   3.840 -0.3433 -0.8336  0.3322
14973SOL    HW146339   3.530   5.325   3.787 -0.2221 -0.5683 -0.0466
14973SOL    HW246340   3.624   5.443   3.786  0.5680 -1.1838  0.3104
14974SOL     OW46341   0.195   5.893   6.707  0.3539  0.8898  0.5224
14974SOL    HW146342   0.195   5.988   6.708 -0.9429  1.0153 -2.1113
14974SOL    HW246343   0.246   5.870   6.629 -0.8620 -0.4914  0.0936
14975SOL     OW46344   4.904   4.480   3.544  0.0556 -0.4009 -0.5834
14975SOL    HW146345   4.844   4.489   3.617 -0.5021 -1.3701 -0.9001
14975SOL    HW246346   4.887   4.556   3.489 -0.6492 -0.4909 -0.5018
14976SOL     OW46347   7.810   3.784   3.976  0.5243  0.4578 -0.0558
14976SOL    HW146348   7.735   3.724   3.969 -1.1642  2.5358 -0.9960
14976SOL    HW246349   7.823   3.795   4.070 -0.3135 -0.0111  0.1296
14977SOL     OW46350   1.290   5.089   3.346 -0.0399  0.2778 -0.5084
14977SOL    HW146351   1.224   5.156   3.364 -1.6341 -1.3190 -0.2042
14977SOL    HW246352   1.350   5.094   3.420 -0.9728  0.4012  0.2505
14978SOL     OW46353   3.055   0.842   2.353 -0.4473  0.2339  0.6049
14978SOL    HW146354   3.034   0.798   2.271 -5.0077  1.5921  0.7789
14978SOL    HW246355   3.110   0.780   2.400  1.2397 -1.1554 -2.8443
14979SOL     OW46356   2.587   7.380   3.044 -0.0949  0.1667  0.1666
14979SOL    HW146357   2.530   7.406   2.971  0.4665 -1.3851 -0.8783
14979SOL    HW246358   2.666   7.346   3.002  0.0432 -1.2414  1.4724
14980SOL     OW46359   2.526   5.231   0.633 -0.1151  0.3617 -0.0909
14980SOL    HW146360   2.502   5.289   0.706 -1.5786  0.2055 -0.4029
14980SOL    HW246361   2.572   5.158   0.673 -1.9231 -0.3069  0.8570
14981SOL     OW46362   0.856   6.388   6.318 -0.5244 -0.5170  0.2424
14981SOL    HW146363   0.920   6.449   6.283  0.2169 -1.8661 -0.8323
14981SOL    HW246364   0.906   6.332   6.378 -0.6843 -1.5350 -0.5483
14982SOL     OW46365   4.614   2.019   2.003 -0.1414 -0.2743  0.1199
14982SOL    HW146366   4.583   2.108   2.016 -1.2064 -0.7390  0.9318
14982SOL    HW246367   4.679   2.006   2.073  0.3435  0.0113 -0.2776
14983SOL     OW46368   7.139   1.637   7.451  0.5668 -0.3258  0.2753
14983SOL    HW146369   7.128   1.730   7.468  2.1226 -0.4453  2.3698
14983SOL    HW246370   7.225   1.616   7.487  0.6127 -2.4301 -0.8674
14984SOL     OW46371   3.477   0.997   1.980  0.0178 -0.3475  0.4945
14984SOL    HW146372   3.392   1.012   2.023 -0.0215 -0.6559  0.5242
14984SOL    HW246373   3.455   0.950   1.900  0.2257 -1.0329  0.8387
14985SOL     OW46374   7.078   2.768   0.046 -0.0067  0.3814  0.1224
14985SOL    HW146375   7.076   2.673   0.055 -0.7174  0.5810  3.0055
14985SOL    HW246376   7.171   2.789   0.035  0.2435 -0.5891  0.2775
14986SOL     OW46377   5.717   1.699   7.495  0.9514  0.0875  0.1723
14986SOL    HW146378   5.727   1.794   7.491  1.4878  0.0306 -0.0009
14986SOL    HW246379   5.799   1.666   7.459  1.0123 -0.4463  0.7898
14987SOL     OW46380   3.078   2.183   4.791 -0.1003 -0.3492 -0.3522
14987SOL    HW146381   2.994   2.152   4.758  0.7018  0.7623 -3.8738
14987SOL    HW246382   3.143   2.142   4.734  1.3307  3.1897 -1.5694
14988SOL     OW46383   1.587   7.808   5.859 -0.5462 -0.0370  0.6664
14988SOL    HW146384   1.596   7.900   5.834 -1.3585 -0.3835 -1.0599
14988SOL    HW246385   1.502   7.803   5.903  0.0277  0.2274  1.8420
14989SOL     OW46386   4.904   1.515   6.889  0.0774 -0.1934 -0.1327
14989SOL    HW146387   4.880   1.598   6.930 -0.6403  0.0395 -1.0132
14989SOL    HW246388   4.981   1.536   6.836  0.3817 -0.2758  0.2653
14990SOL     OW46389   4.068   5.578   2.197 -0.0710 -0.4348  0.1390
14990SOL    HW146390   4.148   5.631   2.196 -1.2657  1.4269 -0.1577
14990SOL    HW246391   4.050   5.560   2.104 -0.1563 -0.6147  0.1901
14991SOL     OW46392   3.019   4.184   2.428 -0.7990  0.1423 -0.7299
14991SOL    HW146393   3.073   4.121   2.379 -1.1270 -1.0656  0.4027
14991SOL    HW246394   2.952   4.212   2.365  0.3989  0.7349 -1.7883
14992SOL     OW46395   4.849   6.722   7.315 -0.1852 -0.0996  0.2784
14992SOL    HW146396   4.928   6.754   7.271 -0.5934 -0.8309 -1.0374
14992SOL    HW246397   4.807   6.665   7.250 -0.5706 -1.5975  1.7744
14993SOL     OW46398   1.751   4.944   7.213 -0.1648  0.3146 -0.9187
14993SOL    HW146399   1.684   4.875   7.216 -0.9090  1.0206  1.9557
14993SOL    HW246400   1.705   5.019   7.177 -0.3769  0.2535 -0.7820
14994SOL     OW46401   0.998   1.911   1.263  0.0146  0.0493  0.0552
14994SOL    HW146402   1.019   1.830   1.216 -0.0237 -0.2581  0.5576
14994SOL    HW246403   1.020   1.981   1.202 -2.2927 -0.3764 -1.3598
14995SOL     OW46404   3.401   7.714   2.024 -0.1380  0.4361 -0.4390
14995SOL    HW146405   3.482   7.706   1.974 -0.5123 -0.7505 -0.8766
14995SOL    HW246406   3.380   7.625   2.052 -1.6682  0.6071 -0.9421
14996SOL     OW46407   2.017   4.477   5.355  0.3529 -0.0373 -0.7190
14996SOL    HW146408   2.112   4.470   5.345  0.5752  1.2580  0.2028
14996SOL    HW246409   2.004   4.495   5.448 -0.5424  2.7410 -1.2715
14997SOL     OW46410   7.279   0.762   7.861  0.0296  0.0611 -0.1197
14997SOL    HW146411   7.249   0.717   7.940 -0.9728 -0.1929 -0.6310
14997SOL    HW246412   7.375   0.762   7.868 -0.0239 -0.6300  0.7230
14998SOL     OW46413   5.356   3.354   4.502  0.3846  0.1584 -0.2280
14998SOL    HW146414   5.269   3.385   4.527 -0.0833 -1.3248  0.0524
14998SOL    HW246415   5.345   3.260   4.489  1.7123  0.1296 -1.2762
14999SOL     OW46416   0.002   2.742   2.223 -0.1578  0.0727  0.1605
14999SOL    HW146417  -0.017   2.778   2.310 -0.7043  2.6567 -0.9459
14999SOL    HW246418   0.097   2.730   2.222 -0.1693 -0.2143  1.1683
15000SOL     OW46419   5.868   0.250   6.953  0.2668  1.0172 -0.8155
15000SOL    HW146420   5.894   0.181   7.014  0.1669  0.4621 -1.3911
15000SOL    HW246421   5.801   0.299   7.000 -2.0475 -1.2371 -1.5324
15001SOL     OW46422   1.204   2.801   4.887  0.5469  0.8759 -0.0785
15001SOL    HW146423   1.224   2.886   4.925  1.6560  0.3269  0.6239
15001SOL    HW246424   1.134   2.818   4.824  0.6633  2.2755  0.1500
15002SOL     OW46425   2.423   4.410   1.262  0.4946 -0.2671  0.5870
15002SOL    HW146426   2.446   4.457   1.342  1.5927 -0.7316  0.5662
15002SOL    HW246427   2.483   4.335   1.260 -1.3776 -1.8342  0.7488
15003SOL     OW46428   2.078   2.870   5.071 -0.0318  0.1380  0.3291
15003SOL    HW146429   2.081   2.784   5.029 -1.0792 -0.1597  0.8307
15003SOL    HW246430   2.121   2.856   5.156 -0.1793  0.1139  0.4001
15004SOL     OW46431   5.265   6.891   7.459  0.8073 -0.3565 -0.4254
15004SOL    HW146432   5.337   6.884   7.521  2.0053  2.8061 -1.2980
15004SOL    HW246433   5.186   6.890   7.513  1.3559 -3.8016  0.5527
15005SOL     OW46434   3.833   3.382   3.250  0.1695 -0.3345  0.2354
15005SOL    HW146435   3.852   3.438   3.174  2.5914 -0.5483  0.6049
15005SOL    HW246436   3.860   3.434   3.325 -0.1918 -0.9551  0.8037
15006SOL     OW46437   8.034   3.573   5.269 -0.5922  0.1562  0.3538
15006SOL    HW146438   7.997   3.486   5.255  3.5268 -2.0325  1.6015
15006SOL    HW246439   8.045   3.580   5.364  1.8053  0.6947  0.0952
15007SOL     OW46440   2.556   2.148   7.129  0.0280 -0.1272 -0.7655
15007SOL    HW146441   2.472   2.152   7.083 -0.1489  1.7332 -0.3788
15007SOL    HW246442   2.607   2.083   7.081 -1.6360 -1.3554 -0.9707
15008SOL     OW46443   0.071   7.111   5.933  0.3259  0.7561  0.1901
15008SOL    HW146444   0.017   7.176   5.888  0.8798  1.2635  0.2394
15008SOL    HW246445   0.011   7.068   5.994  0.1633  1.9397  0.8977
15009SOL     OW46446   7.290   6.936   6.970  0.4482  0.2254 -0.2094
15009SOL    HW146447   7.200   6.962   6.956  0.7330  0.6670 -1.3142
15009SOL    HW246448   7.324   6.997   7.035 -0.5598 -1.0986  1.6228
15010SOL     OW46449   7.056   1.791   6.276  0.2385  0.5539 -0.2387
15010SOL    HW146450   7.065   1.846   6.198 -1.6378  1.1606 -0.0798
15010SOL    HW246451   6.973   1.746   6.264 -1.2904  2.3917  2.3967
15011SOL     OW46452   2.767   3.764   6.199  0.5305 -0.2054  0.2168
15011SOL    HW146453   2.715   3.810   6.266 -1.3201 -2.8688  0.7911
15011SOL    HW246454   2.827   3.709   6.249  0.8666 -0.3714 -0.3641
15012SOL     OW46455   7.997   7.958   3.222 -0.2631  0.2641 -0.2692
15012SOL    HW146456   7.972   8.040   3.181  1.0433  1.2654  0.8143
15012SOL    HW246457   8.092   7.966   3.235 -0.2555 -1.0141  0.7049
15013SOL     OW46458   4.349   4.415   3.232 -0.1701 -0.2211  0.0213
15013SOL    HW146459   4.351   4.324   3.202 -0.3528  0.0228 -0.7748
15013SOL    HW246460   4.431   4.452   3.200 -0.2535 -0.0204  0.0371
15014SOL     OW46461   7.497   7.374   2.253 -0.1740 -0.1858 -0.0324
15014SOL    HW146462   7.587   7.344   2.270 -0.1966 -0.4433 -0.3501
15014SOL    HW246463   7.490   7.376   2.157 -0.8660 -1.2901 -0.0251
15015SOL     OW46464   0.012   5.214   3.714  0.0888 -0.1917 -0.0302
15015SOL    HW146465   0.098   5.174   3.715  0.4590  0.5614  1.3739
15015SOL    HW246466   0.021   5.290   3.657 -0.0277 -0.8664 -0.9608
15016SOL     OW46467   5.192   2.280   5.682  0.3032 -0.1578  0.2228
15016SOL    HW146468   5.268   2.225   5.661 -0.1246 -1.5792  2.0961
15016SOL    HW246469   5.130   2.219   5.722 -1.6939  1.0392 -0.9065
15017SOL     OW46470   6.440   2.090   2.439 -0.5683  0.1198 -0.3089
15017SOL    HW146471   6.528   2.125   2.454  0.1181 -2.2196  1.9139
15017SOL    HW246472   6.447   2.043   2.356  0.6720 -0.9972  0.3840
15018SOL     OW46473   1.652   6.338   1.915  0.7459  0.0818  0.8494
15018SOL    HW146474   1.737   6.308   1.946  0.4880 -0.6838  0.8343
15018SOL    HW246475   1.589   6.278   1.956  0.2431  0.4275  0.5911
15019SOL     OW46476   4.588   3.974   7.997  0.0145 -0.1724 -0.2283
15019SOL    HW146477   4.528   3.899   7.996  0.1097 -0.2734  0.7538
15019SOL    HW246478   4.675   3.935   7.997  0.0751 -0.0353 -1.0660
15020SOL     OW46479   6.152   3.650   3.294  0.4044  0.0319 -0.0866
15020SOL    HW146480   6.103   3.724   3.331  0.3411  0.9574 -1.8954
15020SOL    HW246481   6.213   3.625   3.363 -0.2818  1.1195  0.9518
15021SOL     OW46482   3.126   1.282   4.006  0.0659  0.4393 -0.1987
15021SOL    HW146483   3.202   1.242   4.049 -0.9004 -0.8998  0.3373
15021SOL    HW246484   3.073   1.316   4.079  0.3306  1.7772 -0.5900
15022SOL     OW46485   1.478   6.911   0.813 -0.5382 -0.1534  0.7776
15022SOL    HW146486   1.416   6.984   0.823 -2.1187 -0.9722 -1.8378
15022SOL    HW246487   1.517   6.925   0.726 -0.1507 -1.8811  0.6317
15023SOL     OW46488   7.317   4.645   1.246 -0.1942 -0.1715  0.3817
15023SOL    HW146489   7.228   4.662   1.218 -0.4122 -1.3697  0.2832
15023SOL    HW246490   7.369   4.716   1.209 -1.0107  0.1820 -0.0957
15024SOL     OW46491   0.315   0.793   4.527 -0.3212  0.1532 -0.3230
15024SOL    HW146492   0.281   0.876   4.494 -0.1718  0.5333  0.4595
15024SOL    HW246493   0.237   0.742   4.548 -0.4395  0.8902  1.1423
15025SOL     OW46494   1.735   3.302   1.028  0.4491  0.2572 -0.6506
15025SOL    HW146495   1.782   3.316   0.946  0.0591  1.0216 -0.7636
15025SOL    HW246496   1.797   3.259   1.085  0.3734 -1.3114 -1.7053
15026SOL     OW46497   2.822   6.630   1.587 -0.0004 -0.0430  0.0481
15026SOL    HW146498   2.771   6.643   1.667  0.1814  1.2877 -0.0434
15026SOL    HW246499   2.819   6.714   1.542  0.1591 -0.6892 -1.2015
15027SOL     OW46500   0.771   5.373   5.394 -0.0589  0.3992 -0.4003
15027SOL    HW146501   0.832   5.315   5.440 -0.6120 -0.7247 -1.0442
15027SOL    HW246502   0.814   5.391   5.310  0.3954  1.4578  0.0394
15028SOL     OW46503   2.497   3.672   0.853 -0.2084 -0.0188 -0.4239
15028SOL    HW146504   2.577   3.621   0.873 -0.3346 -0.8318 -1.8765
15028SOL    HW246505   2.530   3.755   0.819 -0.0023  0.7349  1.4818
15029SOL     OW46506   2.898   3.614   3.802  0.3374 -0.0390 -0.5384
15029SOL    HW146507   2.924   3.605   3.711 -1.1332  1.2051 -1.1076
15029SOL    HW246508   2.896   3.524   3.835  0.4405 -0.5439 -1.8549
15030SOL     OW46509   0.298   7.331   0.050 -0.2730 -0.2853 -0.3729
15030SOL    HW146510   0.273   7.256  -0.004 -0.2551 -0.6583  0.1237
15030SOL    HW246511   0.377   7.364   0.008 -1.3504  0.6776 -1.7342
15031SOL     OW46512   3.010   4.308   1.557 -0.8291 -0.0480  0.1398
15031SOL    HW146513   3.096   4.331   1.522 -0.9282  0.6280  0.3102
15031SOL    HW246514   2.949   4.361   1.505 -0.9657  1.1222  1.4278
15032SOL     OW46515   3.924   5.000   4.062  0.1053  0.2269  0.2924
15032SOL    HW146516   4.018   4.996   4.083 -0.1440  0.3538  1.5320
15032SOL    HW246517   3.919   5.062   3.989  0.9343  0.7494  0.6517
15033SOL     OW46518   7.847   3.520   7.037 -0.4013 -0.1674  0.2134
15033SOL    HW146519   7.826   3.612   7.018  3.5157  0.1720 -4.3998
15033SOL    HW246520   7.932   3.524   7.080 -0.9127 -1.7046  1.4352
15034SOL     OW46521   4.133   4.808   7.948 -0.3608  0.0227 -0.3704
15034SOL    HW146522   4.113   4.780   8.037 -0.0285 -1.7781 -0.8258
15034SOL    HW246523   4.089   4.743   7.892  1.1460 -0.1004 -1.4786
15035SOL     OW46524   3.535   7.709   6.184 -0.1776 -0.1638 -0.2572
15035SOL    HW146525   3.443   7.699   6.207  0.1106 -0.3545  0.9031
15035SOL    HW246526   3.577   7.630   6.219  0.2389 -0.7444 -1.9471
15036SOL     OW46527   3.095   6.908   2.978 -0.1798 -0.8275 -0.0230
15036SOL    HW146528   3.186   6.883   2.961 -0.1607 -0.7305 -0.0627
15036SOL    HW246529   3.101   6.977   3.044 -0.0854  0.6847 -1.5391
15037SOL     OW46530   2.122   7.444   6.861 -0.0583 -0.3565  0.4592
15037SOL    HW146531   2.126   7.539   6.869 -0.4038 -0.0591 -2.0107
15037SOL    HW246532   2.039   7.420   6.903 -0.2564  0.5138  0.5882
15038SOL     OW46533   3.258   0.313   2.756 -0.7247  0.0336  0.0223
15038SOL    HW146534   3.278   0.337   2.847 -1.0215 -0.6295  0.2722
15038SOL    HW246535   3.165   0.291   2.758 -0.6107 -0.4722 -0.3365
15039SOL     OW46536   6.423   3.529   2.039 -0.5152 -0.0016 -0.2338
15039SOL    HW146537   6.434   3.610   2.088  2.6092  1.0712 -2.3825
15039SOL    HW246538   6.430   3.459   2.104  0.1449  1.3812  1.2233
15040SOL     OW46539   2.029   6.587   3.276  0.3086  0.1499 -0.3250
15040SOL    HW146540   2.023   6.552   3.187 -1.1574  1.6687 -0.8691
15040SOL    HW246541   2.119   6.569   3.303  0.7160 -0.5339 -2.0141
15041SOL     OW46542   4.673   2.736   3.891 -0.2931  0.0990 -0.2264
15041SOL    HW146543   4.677   2.751   3.796 -1.3680 -2.6718 -0.8048
15041SOL    HW246544   4.756   2.691   3.911  0.0340  0.8876  0.2120
15042SOL     OW46545   1.560   3.216   1.302 -0.1354  0.2770  0.1516
15042SOL    HW146546   1.583   3.144   1.361  0.7699  2.2865  2.3842
15042SOL    HW246547   1.640   3.233   1.253  0.1342  0.7381  0.7370
15043SOL     OW46548   1.192   4.994   4.706  0.3379 -0.2362 -0.1893
15043SOL    HW146549   1.174   5.073   4.655  0.0176 -0.3883 -0.3138
15043SOL    HW246550   1.275   4.962   4.671 -0.0897 -0.5784 -0.9164
15044SOL     OW46551   6.156   1.127   0.854 -0.0267  0.0162 -0.6290
15044SOL    HW146552   6.188   1.113   0.943 -1.9879  0.0371  0.1291
15044SOL    HW246553   6.199   1.059   0.802  1.9350  0.6338  0.0849
15045SOL     OW46554   2.120   0.308   6.372  0.1395  0.6545 -0.0825
15045SOL    HW146555   2.187   0.361   6.416  1.2806  0.3455 -1.3782
15045SOL    HW246556   2.051   0.371   6.350  0.6132  1.2471  0.0868
15046SOL     OW46557   7.825   7.639   5.921  0.1288  0.2865 -0.1954
15046SOL    HW146558   7.904   7.630   5.974 -0.7084  0.6397  1.1551
15046SOL    HW246559   7.832   7.725   5.881  0.0959  0.6186  0.5040
15047SOL     OW46560   6.545   5.631   1.475 -0.1056  0.0517 -0.0558
15047SOL    HW146561   6.594   5.577   1.413  0.5073 -1.6857  1.8270
15047SOL    HW246562   6.485   5.570   1.518 -0.2228  1.1043  1.3522
15048SOL     OW46563   0.330   5.225   2.787 -0.1324 -0.4173 -0.5664
15048SOL    HW146564   0.380   5.245   2.708 -0.3815 -2.0050 -1.1770
15048SOL    HW246565   0.350   5.296   2.848  0.8860  0.2840 -1.6827
15049SOL     OW46566   3.115   2.374   7.638 -0.5207 -0.6832  0.1664
15049SOL    HW146567   3.119   2.388   7.543  1.7246 -0.3721  0.2625
15049SOL    HW246568   3.029   2.334   7.652 -1.0546 -0.4176 -1.9424
15050SOL     OW46569   0.194   6.244   2.400 -0.2954  0.5632 -0.5109
15050SOL    HW146570   0.267   6.224   2.458 -0.6803  0.0772 -0.1877
15050SOL    HW246571   0.220   6.207   2.315 -1.0487 -1.4978  0.1039
15051SOL     OW46572   2.798   1.669   4.949  0.0037  0.4240  0.1132
15051SOL    HW146573   2.868   1.614   4.914  1.4033  2.5829 -0.7289
15051SOL    HW246574   2.826   1.689   5.038 -0.2462  0.1592  0.2499
15052SOL     OW46575   0.136   4.239   2.521  0.9412  0.1793  0.4379
15052SOL    HW146576   0.153   4.149   2.548 -0.5372 -0.5965 -1.1002
15052SOL    HW246577   0.165   4.292   2.596  2.3372 -1.5094  1.1519
15053SOL     OW46578   5.672   4.563   2.408  0.0154  0.4154  0.1509
15053SOL    HW146579   5.625   4.607   2.478  1.1009  2.4487 -0.3361
15053SOL    HW246580   5.745   4.519   2.452 -1.2657 -1.2624  0.6801
15054SOL     OW46581   7.673   6.303   5.189  0.4236  0.2031  0.3299
15054SOL    HW146582   7.680   6.359   5.266  0.8814  0.2238  0.2742
15054SOL    HW246583   7.711   6.220   5.217  1.4505  0.4946 -0.1504
15055SOL     OW46584   6.305   2.071   5.391  0.3764  0.0854  0.2260
15055SOL    HW146585   6.374   2.101   5.333 -0.1564  1.7232  0.3913
15055SOL    HW246586   6.349   2.053   5.474  0.8033 -0.1917 -0.0581
15056SOL     OW46587   2.985   4.623   4.150  0.2807  0.4530  0.0359
15056SOL    HW146588   3.051   4.692   4.145  1.2676 -0.5154 -0.9419
15056SOL    HW246589   2.949   4.631   4.238 -0.9973  3.3995 -0.6258
15057SOL     OW46590   1.421   4.615   1.116  0.3735  0.3719  0.2191
15057SOL    HW146591   1.462   4.702   1.111  0.6701  0.3647  1.9635
15057SOL    HW246592   1.390   4.609   1.206 -0.9536 -0.7735 -0.2835
15058SOL     OW46593   7.218   3.204   4.636 -0.5837 -0.3912 -0.1608
15058SOL    HW146594   7.213   3.115   4.672  2.4916 -0.0868  1.3706
15058SOL    HW246595   7.266   3.254   4.703  0.9161  1.5158 -2.5131
15059SOL     OW46596   4.454   4.209   1.723  0.7979  0.3790  0.5533
15059SOL    HW146597   4.441   4.148   1.796 -0.6813 -2.5216 -1.8864
15059SOL    HW246598   4.547   4.200   1.701  0.6696 -0.8855  0.4191
15060SOL     OW46599   4.371   3.814   8.024 -0.0910  0.1315 -0.1014
15060SOL    HW146600   4.381   3.828   8.118  2.7234 -1.5002 -0.0317
15060SOL    HW246601   4.326   3.730   8.016  0.3971 -0.1319 -0.1616
15061SOL     OW46602   5.350   5.732   3.402 -0.1916 -0.0662 -0.2673
15061SOL    HW146603   5.384   5.820   3.384 -1.9076  0.7576  0.2224
15061SOL    HW246604   5.308   5.740   3.487  1.4325 -1.9647  0.7838
15062SOL     OW46605   1.825   5.408   7.614  0.1640  0.1572 -0.9351
15062SOL    HW146606   1.752   5.462   7.646 -0.4085 -0.8558 -0.5105
15062SOL    HW246607   1.799   5.318   7.633  1.5999 -0.2165 -0.6548
15063SOL     OW46608   7.275   1.171   6.320  0.2548  0.1259  0.6303
15063SOL    HW146609   7.370   1.168   6.308  0.1870 -2.2897  0.2669
15063SOL    HW246610   7.239   1.154   6.233 -0.4779 -0.4267  1.0290
15064SOL     OW46611   4.076   0.778   7.332 -0.8666  0.1658 -0.3290
15064SOL    HW146612   4.012   0.728   7.383 -3.6513  0.6994 -3.0005
15064SOL    HW246613   4.150   0.718   7.322 -2.3728 -1.8967  0.0421
15065SOL     OW46614   4.622   7.650   4.117  0.0248  0.1900 -0.0732
15065SOL    HW146615   4.657   7.592   4.051 -0.5488 -0.5989  0.2984
15065SOL    HW246616   4.663   7.735   4.099 -0.7981  0.2311 -1.9907
15066SOL     OW46617   4.402   7.068   7.407  0.0603 -0.1453 -0.0552
15066SOL    HW146618   4.429   6.978   7.426  1.1285  0.2287  0.2712
15066SOL    HW246619   4.467   7.101   7.346  0.6850  0.9539  1.1407
15067SOL     OW46620   0.181   3.012   5.149  0.0104  0.0222 -0.2192
15067SOL    HW146621   0.254   3.051   5.102  0.7444 -1.9582 -0.8459
15067SOL    HW246622   0.111   3.006   5.085 -0.2665  0.6941  0.0091
15068SOL     OW46623   4.480   0.748   5.142 -0.0641  0.1813  0.8730
15068SOL    HW146624   4.495   0.736   5.048  0.0246 -0.6079  0.9825
15068SOL    HW246625   4.416   0.820   5.147  0.0929  0.3680  0.2203
15069SOL     OW46626   0.302   2.691   2.588 -0.4076 -0.0484 -0.5940
15069SOL    HW146627   0.379   2.735   2.554 -1.4613  2.4014 -0.0158
15069SOL    HW246628   0.307   2.704   2.683 -1.4352  0.0033 -0.5365
15070SOL     OW46629   6.803   5.793   1.174 -0.1794 -0.0146 -0.3555
15070SOL    HW146630   6.716   5.793   1.134 -0.8549 -0.1044  1.0576
15070SOL    HW246631   6.814   5.704   1.208  1.0953 -0.4497 -1.7421
15071SOL     OW46632   5.540   0.328   1.650  0.2188  0.3840  0.2663
15071SOL    HW146633   5.548   0.350   1.743 -1.1647 -0.7294  0.6984
15071SOL    HW246634   5.449   0.300   1.641  0.4442  0.1162 -1.3527
15072SOL     OW46635   6.192   0.318   4.238  0.2725 -0.3690 -0.1137
15072SOL    HW146636   6.167   0.264   4.163  0.1250  0.0144 -0.3419
15072SOL    HW246637   6.273   0.361   4.212  1.3429 -1.8011  0.7194
15073SOL     OW46638   0.481   2.473   2.907  0.5754 -0.1071 -0.0125
15073SOL    HW146639   0.479   2.515   2.993  4.0810  1.6331 -0.6030
15073SOL    HW246640   0.389   2.472   2.879 -0.5239  0.4351  3.1633
15074SOL     OW46641   0.544   5.497   6.198 -0.1511 -0.1612  0.0579
15074SOL    HW146642   0.520   5.467   6.110  0.0009  1.9089 -0.7567
15074SOL    HW246643   0.476   5.560   6.221 -0.0259 -0.4698  1.3260
15075SOL     OW46644   2.665   7.697   6.627 -0.0968 -0.6271 -0.1874
15075SOL    HW146645   2.662   7.738   6.540 -1.3916 -1.0594 -0.3643
15075SOL    HW246646   2.665   7.603   6.609  1.7347 -0.7544  0.2487
15076SOL     OW46647   2.576   5.062   1.154  0.7145 -0.2370 -0.0902
15076SOL    HW146648   2.640   5.084   1.087  0.9485 -1.2253 -0.2031
15076SOL    HW246649   2.620   4.998   1.210 -0.2218 -1.0685 -0.2711
15077SOL     OW46650   2.616   1.651   4.117  0.0989  0.0593  0.4475
15077SOL    HW146651   2.535   1.616   4.079  0.2278  2.3811 -2.3010
15077SOL    HW246652   2.681   1.584   4.098 -0.7842 -0.9846  0.9619
15078SOL     OW46653   7.360   1.648   7.590  0.4836 -0.2312 -0.9219
15078SOL    HW146654   7.387   1.740   7.581 -0.4641  0.1744  0.1236
15078SOL    HW246655   7.395   1.621   7.675 -1.5599  0.0424  0.0629
15079SOL     OW46656   7.884   2.760   7.080 -0.3335  0.0691 -0.1225
15079SOL    HW146657   7.966   2.714   7.097 -1.1536 -1.3818  0.0889
15079SOL    HW246658   7.899   2.848   7.113  0.8879 -0.3788  0.5965
15080SOL     OW46659   7.433   1.617   7.849 -0.5938  0.7512 -0.2453
15080SOL    HW146660   7.451   1.604   7.943  1.0545  0.0642 -0.6179
15080SOL    HW246661   7.409   1.709   7.842 -4.8622  0.0240  1.3953
15081SOL     OW46662   3.766   1.879   3.600 -0.8817 -0.7317 -0.2265
15081SOL    HW146663   3.729   1.964   3.624  1.0430 -0.3291  1.6604
15081SOL    HW246664   3.852   1.877   3.643  0.3055 -2.5382 -2.4540
15082SOL     OW46665   2.132   1.228   1.643  0.1671  0.1929  0.6830
15082SOL    HW146666   2.195   1.271   1.585  0.2386 -0.0906  0.5483
15082SOL    HW246667   2.172   1.144   1.664  0.2047  0.3486  1.2566
15083SOL     OW46668   2.142   7.950   5.056 -0.7068  0.2355 -0.2776
15083SOL    HW146669   2.168   7.895   4.982  0.7323  0.4328  0.0524
15083SOL    HW246670   2.175   8.037   5.034  1.4484 -0.0759  1.3961
15084SOL     OW46671   6.551   4.794   1.562 -0.5772  0.0263 -0.2623
15084SOL    HW146672   6.528   4.710   1.522  0.3179  0.0403 -0.8490
15084SOL    HW246673   6.620   4.772   1.624  1.1939  0.5657 -1.9410
15085SOL     OW46674   6.641   6.046   4.610  0.1217 -0.1074  0.0493
15085SOL    HW146675   6.684   5.960   4.609 -0.7313 -0.6234  2.1218
15085SOL    HW246676   6.584   6.044   4.687 -1.0284  1.8078 -0.6576
15086SOL     OW46677   2.994   1.519   6.009 -0.1705  0.2132  0.1720
15086SOL    HW146678   3.032   1.543   6.094 -1.0266 -0.3087  0.7195
15086SOL    HW246679   3.033   1.434   5.989  0.0297  0.3352  0.0487
15087SOL     OW46680   3.924   4.779   4.264 -0.1896  0.3370  0.1882
15087SOL    HW146681   3.947   4.871   4.250 -0.3230  0.2849 -0.4388
15087SOL    HW246682   3.888   4.751   4.180  0.4545 -0.4671  0.1688
15088SOL     OW46683   4.234   1.282   7.306 -0.2857  0.3380 -0.0297
15088SOL    HW146684   4.270   1.194   7.313 -0.4362  0.3727  1.4998
15088SOL    HW246685   4.271   1.317   7.225  0.0360 -1.0038 -0.4861
15089SOL     OW46686   6.944   7.468   0.705  0.4469 -0.1391  0.0348
15089SOL    HW146687   6.881   7.422   0.761  0.5377  0.4692  0.6514
15089SOL    HW246688   6.892   7.533   0.658  0.8233  1.5801  1.8520
15090SOL     OW46689   4.451   2.707   2.505 -0.4818  0.1022  0.2542
15090SOL    HW146690   4.520   2.743   2.448  0.7364 -2.8463 -0.3224
15090SOL    HW246691   4.462   2.754   2.588 -0.2929  2.3281 -0.9374
15091SOL     OW46692   7.530   6.800   7.363 -0.0875  0.3764 -0.0111
15091SOL    HW146693   7.606   6.834   7.409 -0.8098 -1.5725  2.9182
15091SOL    HW246694   7.455   6.832   7.412 -0.9981 -0.7287 -0.6199
15092SOL     OW46695   5.376   8.022   0.944 -0.5465  0.1953 -0.0323
15092SOL    HW146696   5.386   8.109   0.904  0.1721  0.5338  0.8266
15092SOL    HW246697   5.434   7.965   0.893 -1.4839  0.0657 -0.9863
15093SOL     OW46698   0.862   6.557   6.955  0.3684  0.0003  0.1111
15093SOL    HW146699   0.831   6.467   6.959 -0.7343  0.3428 -0.4752
15093SOL    HW246700   0.784   6.609   6.935  0.5251  1.3542  2.5592
15094SOL     OW46701   3.428   7.263   4.079  0.7493 -0.1109 -0.1078
15094SOL    HW146702   3.395   7.182   4.040  2.6610 -1.3462  0.6677
15094SOL    HW246703   3.464   7.236   4.163  1.4360  1.5465  0.1744
15095SOL     OW46704   7.641   7.531   7.874  0.4263  0.4325 -0.4412
15095SOL    HW146705   7.726   7.511   7.913  0.5507  1.8370  0.1038
15095SOL    HW246706   7.651   7.511   7.781  1.6278  1.3210 -0.5282
15096SOL     OW46707   4.816   6.336   4.083  0.1099 -0.2174  0.2638
15096SOL    HW146708   4.871   6.402   4.127  0.0982 -0.7594  1.1108
15096SOL    HW246709   4.791   6.378   4.001  0.7379  0.5417  0.4395
15097SOL     OW46710   5.750   8.019   2.179  0.2403  0.0110  0.4781
15097SOL    HW146711   5.790   7.932   2.183  1.6656  0.5138 -1.4739
15097SOL    HW246712   5.691   8.014   2.104  0.0183  0.6137  0.6105
15098SOL     OW46713   5.346   6.548   0.946 -0.0135 -0.3515 -0.6146
15098SOL    HW146714   5.263   6.502   0.953 -0.2290  0.1768  0.6746
15098SOL    HW246715   5.385   6.516   0.865 -1.2847 -0.9038 -1.0296
15099SOL     OW46716   4.276   2.966   4.003 -0.3550  0.0986  0.0383
15099SOL    HW146717   4.220   2.936   4.074  0.4874 -1.1515  0.2048
15099SOL    HW246718   4.356   2.996   4.046 -0.0734 -0.1061 -0.3315
15100SOL     OW46719   7.310   0.708   6.241  0.3462 -0.2523 -0.0322
15100SOL    HW146720   7.278   0.722   6.330 -0.8740  1.2937 -0.6578
15100SOL    HW246721   7.289   0.789   6.195  1.6110 -0.7370 -1.5547
15101SOL     OW46722   7.156   5.045   4.894  0.2708 -0.3178 -0.1001
15101SOL    HW146723   7.157   5.003   4.980  2.5106 -1.8615 -0.7661
15101SOL    HW246724   7.106   5.125   4.906  0.3601 -0.5871  2.5892
15102SOL     OW46725   3.658   3.223   4.086  0.1470 -0.1887 -0.2188
15102SOL    HW146726   3.688   3.293   4.143 -0.7131 -0.7427  0.9657
15102SOL    HW246727   3.576   3.256   4.048 -0.4979 -0.6877  0.6897
15103SOL     OW46728   4.415   5.406   2.194  0.1897  0.0591  0.3582
15103SOL    HW146729   4.398   5.443   2.281  0.0946  1.5829 -0.2904
15103SOL    HW246730   4.376   5.469   2.133  2.1461  0.1208 -0.8818
15104SOL     OW46731   4.143   2.560   6.045 -0.4937  0.3562 -0.5992
15104SOL    HW146732   4.221   2.527   6.089  0.3675  1.8554 -0.9423
15104SOL    HW246733   4.081   2.578   6.116  0.1344  0.8555 -0.1735
15105SOL     OW46734   4.410   0.185   5.298 -0.2711  0.2764 -0.2525
15105SOL    HW146735   4.372   0.168   5.384 -0.3576 -0.2649 -0.3962
15105SOL    HW246736   4.495   0.140   5.301  0.9753  2.5121  0.5301
15106SOL     OW46737   3.627   5.718   4.721  0.1621  0.2683  0.1683
15106SOL    HW146738   3.576   5.747   4.645 -0.8514  0.3280  0.8540
15106SOL    HW246739   3.649   5.799   4.767  1.2859  0.2845 -0.3468
15107SOL     OW46740   7.491   6.519   5.995 -0.0870  0.2109  0.5138
15107SOL    HW146741   7.502   6.428   5.967  0.3667  0.1041  1.0176
15107SOL    HW246742   7.411   6.548   5.951  2.3360  1.1655 -3.7883
15108SOL     OW46743   3.024   2.393   2.542  0.3477  0.3193 -0.3821
15108SOL    HW146744   2.950   2.342   2.573  0.0019  2.2216  2.2753
15108SOL    HW246745   3.015   2.393   2.446 -2.3936 -0.4762 -0.2026
15109SOL     OW46746   5.896   3.957   3.057 -0.0741 -1.0221 -0.3293
15109SOL    HW146747   5.852   3.986   2.977  0.9901  1.2503 -0.1885
15109SOL    HW246748   5.961   3.894   3.027  1.1324  0.6727 -1.5178
15110SOL     OW46749   2.626   4.750   3.868  0.8183 -0.2251 -0.8104
15110SOL    HW146750   2.629   4.716   3.778  0.7212 -1.0292 -0.5151
15110SOL    HW246751   2.533   4.745   3.892  0.7971  0.2939 -0.7736
15111SOL     OW46752   6.062   1.528   6.713  0.1332  0.6194 -0.4226
15111SOL    HW146753   6.066   1.624   6.713 -0.2996  0.6569 -2.3046
15111SOL    HW246754   6.025   1.505   6.629 -0.6717 -1.1978  0.3810
15112SOL     OW46755   2.592   7.951   1.921 -0.3001 -0.1392 -0.1291
15112SOL    HW146756   2.498   7.936   1.908 -0.5178  0.6431  0.4958
15112SOL    HW246757   2.605   8.044   1.902  0.4776 -0.3862 -0.8836
15113SOL     OW46758   0.619   0.269   6.768 -0.2963  1.1730  0.3498
15113SOL    HW146759   0.671   0.196   6.802 -1.5428 -0.8958 -1.8765
15113SOL    HW246760   0.590   0.315   6.847 -1.5376 -2.2656  2.1388
15114SOL     OW46761   4.741   6.350   1.991  0.4456 -0.6191  0.0203
15114SOL    HW146762   4.778   6.324   2.076 -0.1467  1.7612  1.1058
15114SOL    HW246763   4.653   6.383   2.013 -0.1461 -0.9798 -1.6927
15115SOL     OW46764   3.750   0.769   2.339  0.3196  0.5441 -0.0472
15115SOL    HW146765   3.740   0.832   2.411 -0.2005  1.4099 -0.8622
15115SOL    HW246766   3.662   0.762   2.302  0.2446 -1.0959  0.3665
15116SOL     OW46767   4.523   6.157   0.879  0.3860  0.8702 -0.1832
15116SOL    HW146768   4.529   6.159   0.975 -1.2489 -1.6522  0.0512
15116SOL    HW246769   4.609   6.126   0.850  0.1707 -0.6316  0.6674
15117SOL     OW46770   4.726   7.481   3.497  0.7484 -0.0349  0.2375
15117SOL    HW146771   4.754   7.498   3.407  0.9221  1.4005  0.5328
15117SOL    HW246772   4.633   7.504   3.498  0.9693  0.8819  0.6330
15118SOL     OW46773   1.770   3.562   1.328  0.6497  0.1509  0.0692
15118SOL    HW146774   1.690   3.534   1.373  0.6161  1.4731  0.8945
15118SOL    HW246775   1.740   3.595   1.244  0.8328 -3.4619 -1.5650
15119SOL     OW46776   4.255   5.992   4.946  0.5732  0.1615 -0.2918
15119SOL    HW146777   4.216   5.983   5.033  3.8580  1.8560  1.5707
15119SOL    HW246778   4.219   6.074   4.912  0.7773  0.5481  0.4002
15120SOL     OW46779   0.532   0.225   5.761  0.0717 -0.0515  0.0522
15120SOL    HW146780   0.590   0.299   5.741  0.3384  0.1447  1.4175
15120SOL    HW246781   0.534   0.171   5.683  1.6563  0.2415 -0.1501
15121SOL     OW46782   7.539   2.628   7.318 -0.0422 -0.0186  0.3841
15121SOL    HW146783   7.540   2.546   7.367  0.0897  0.8755  1.9393
15121SOL    HW246784   7.604   2.683   7.361 -0.4900  1.0952 -0.3049
15122SOL     OW46785   7.563   7.984   6.987 -0.6416  0.0657 -0.2079
15122SOL    HW146786   7.538   8.039   6.913  0.7748 -0.3480 -1.0299
15122SOL    HW246787   7.563   7.895   6.952 -0.5435 -0.2073  0.4674
15123SOL     OW46788   1.253   5.946   7.309  0.1408  0.2013 -0.1741
15123SOL    HW146789   1.208   6.007   7.251  0.7395 -1.4848 -2.5637
15123SOL    HW246790   1.338   5.932   7.268  1.3585  0.2917  2.1281
15124SOL     OW46791   7.181   1.205   3.824 -0.5223  0.0039  0.0451
15124SOL    HW146792   7.141   1.168   3.746  0.8436 -1.3705 -0.0456
15124SOL    HW246793   7.141   1.292   3.833 -1.2759 -0.1337 -1.7073
15125SOL     OW46794   4.137   6.940   3.887 -0.3479  0.5225  0.0612
15125SOL    HW146795   4.058   6.969   3.933  1.1249  2.4934  1.5349
15125SOL    HW246796   4.178   6.877   3.947  0.5462  1.5831  0.6173
15126SOL     OW46797   4.505   4.067   4.820  0.2797  0.0453 -0.3710
15126SOL    HW146798   4.522   4.026   4.904  0.5540  0.2494 -0.3276
15126SOL    HW246799   4.433   4.016   4.783 -0.2095  0.2905  0.2237
15127SOL     OW46800   1.810   2.753   0.623 -0.1069 -0.3512  0.0391
15127SOL    HW146801   1.728   2.782   0.664 -1.5623 -1.7275 -1.7275
15127SOL    HW246802   1.875   2.760   0.693 -2.1112 -1.0304  2.1053
15128SOL     OW46803   4.044   3.477   0.726 -0.0585 -0.1199  0.3273
15128SOL    HW146804   4.075   3.531   0.654 -0.1776 -0.8837 -0.3088
15128SOL    HW246805   4.007   3.399   0.684 -0.5912 -0.3473  1.1847
15129SOL     OW46806   3.729   3.420   0.793  0.3531 -0.3467 -0.0696
15129SOL    HW146807   3.799   3.392   0.734 -0.8242 -0.8834 -1.2693
15129SOL    HW246808   3.758   3.393   0.880  2.1460  0.4917 -0.3776
15130SOL     OW46809   5.533   3.558   4.565 -0.0390 -0.3819  0.8036
15130SOL    HW146810   5.488   3.592   4.642  0.5024 -1.1834  1.4919
15130SOL    HW246811   5.475   3.488   4.533 -0.4301  0.1768  0.2687
15131SOL     OW46812   3.601   2.577   7.547  0.0907  0.6060 -1.0429
15131SOL    HW146813   3.579   2.503   7.491 -1.5279 -0.2919  0.6393
15131SOL    HW246814   3.524   2.634   7.542 -0.5502 -0.0110  1.0065
15132SOL     OW46815   6.840   2.683   6.827  0.6757 -1.1009 -0.3843
15132SOL    HW146816   6.906   2.719   6.886 -1.1220  1.5311  0.2213
15132SOL    HW246817   6.887   2.668   6.745  1.9577  1.2644 -0.1741
15133SOL     OW46818   1.480   1.745   0.912 -0.6564 -0.3025 -0.2694
15133SOL    HW146819   1.540   1.786   0.974  0.9856 -1.7466 -0.8206
15133SOL    HW246820   1.448   1.667   0.958 -0.4352 -0.6860 -0.7628
15134SOL     OW46821   4.242   0.046   0.077  0.2999  0.1965 -0.2307
15134SOL    HW146822   4.332   0.035   0.046 -0.1409 -1.1212 -1.1445
15134SOL    HW246823   4.192   0.070  -0.001 -0.1537  0.8621  0.2522
15135SOL     OW46824   2.501   0.249   6.843 -0.1365  0.0078 -0.6919
15135SOL    HW146825   2.552   0.175   6.875 -0.6682 -0.3286 -0.6058
15135SOL    HW246826   2.521   0.320   6.903 -0.5709 -0.4146 -0.0330
15136SOL     OW46827   3.098   3.187   7.731 -0.2741 -0.2294 -0.3486
15136SOL    HW146828   3.089   3.251   7.660  0.4117  1.7523  1.2532
15136SOL    HW246829   3.128   3.107   7.688 -1.7296  0.3058 -2.5160
15137SOL     OW46830   6.924   7.704   4.271  0.1519  0.2306 -0.6587
15137SOL    HW146831   6.933   7.642   4.343 -1.0676  2.0716  1.2188
15137SOL    HW246832   7.000   7.761   4.279 -0.8255  1.4632  0.3118
15138SOL     OW46833   0.820   6.375   4.363 -0.5357 -0.0676 -0.6519
15138SOL    HW146834   0.726   6.392   4.356 -0.5254  0.3638  0.0729
15138SOL    HW246835   0.861   6.460   4.345 -0.3422  0.0167  0.1444
15139SOL     OW46836   1.088   6.076   6.092 -0.8885  0.4402  0.3267
15139SOL    HW146837   1.014   6.072   6.153 -0.7757  1.9057  0.6066
15139SOL    HW246838   1.130   5.990   6.098 -1.6998  0.1001  1.2788
15140SOL     OW46839   1.468   4.641   0.506  0.1674 -0.3756 -0.1927
15140SOL    HW146840   1.558   4.624   0.535  0.4703 -0.1838 -1.0057
15140SOL    HW246841   1.452   4.732   0.530  0.3384 -0.2861 -0.4126
15141SOL     OW46842   1.147   5.703   4.557  0.1300  1.2015 -0.8740
15141SOL    HW146843   1.173   5.774   4.614  1.3836  0.1815 -0.1156
15141SOL    HW246844   1.051   5.703   4.560  0.1398  2.3057 -0.2435
15142SOL     OW46845   4.018   1.105   5.461 -0.5390 -0.1198 -0.8432
15142SOL    HW146846   4.063   1.189   5.471 -0.7364  0.0767 -1.5385
15142SOL    HW246847   3.927   1.124   5.481 -0.2917 -0.5939  0.9185
15143SOL     OW46848   5.467   0.097   5.608  0.3171  0.3065 -0.0548
15143SOL    HW146849   5.405   0.049   5.664 -0.1595 -0.0932 -0.9093
15143SOL    HW246850   5.433   0.187   5.606 -0.5429 -0.0256 -0.9341
15144SOL     OW46851   0.852   4.881   2.790 -0.1428 -0.9095 -0.0987
15144SOL    HW146852   0.850   4.967   2.748 -0.3254 -1.1031 -0.4965
15144SOL    HW246853   0.856   4.899   2.883  0.2708 -0.4668 -0.1999
15145SOL     OW46854   3.275   1.094   1.290  0.1173  0.5848 -0.2225
15145SOL    HW146855   3.188   1.083   1.252  0.1572  1.2965 -0.5298
15145SOL    HW246856   3.259   1.141   1.372  0.0006 -1.1864  0.8275
15146SOL     OW46857   3.576   1.570   0.253 -0.3368  0.1922 -0.4827
15146SOL    HW146858   3.484   1.545   0.244 -0.7515  0.9655  1.1839
15146SOL    HW246859   3.610   1.510   0.319  0.0912  0.5364 -0.3864
15147SOL     OW46860   5.371   4.215   1.516  0.5946  0.0569 -0.0832
15147SOL    HW146861   5.396   4.129   1.551  1.0784  0.0474 -0.4428
15147SOL    HW246862   5.423   4.277   1.568 -0.0928  0.1689  0.4863
15148SOL     OW46863   3.911   0.557   5.762  0.2629  0.0071  0.0570
15148SOL    HW146864   3.916   0.567   5.857 -1.5263  2.1926 -0.0090
15148SOL    HW246865   3.971   0.622   5.728  0.3662 -0.2898 -0.3340
15149SOL     OW46866   1.081   6.211   1.372 -0.1853  0.1772  0.1713
15149SOL    HW146867   1.124   6.246   1.450 -1.3751  0.9839  0.4914
15149SOL    HW246868   1.035   6.133   1.403  1.1022 -0.7738 -0.2018
15150SOL     OW46869   2.603   0.950   4.725  0.2452  0.0709  0.3887
15150SOL    HW146870   2.667   0.984   4.663 -0.4301  2.3117  0.7868
15150SOL    HW246871   2.538   1.021   4.732 -1.3119 -1.3828  1.3287
15151SOL     OW46872   1.694   2.054   4.591  0.1609 -0.1231  0.2586
15151SOL    HW146873   1.599   2.051   4.582 -0.0233  2.3390  0.8326
15151SOL    HW246874   1.718   1.965   4.618 -1.9528 -0.8036  0.0698
15152SOL     OW46875   1.110   5.047   0.222 -0.3591  0.5569 -0.2099
15152SOL    HW146876   1.180   4.981   0.220  0.9487  1.6096  3.1664
15152SOL    HW246877   1.155   5.130   0.205 -1.4517  0.9497 -1.3585
15153SOL     OW46878   2.689   3.855   1.713 -0.0169  0.3501  0.1837
15153SOL    HW146879   2.659   3.929   1.660  0.6412 -0.1409 -0.9220
15153SOL    HW246880   2.663   3.877   1.802 -1.1950  1.1999 -0.3407
15154SOL     OW46881   7.970   2.787   0.058 -0.2783  0.0645 -0.0676
15154SOL    HW146882   7.960   2.824   0.145  0.8007  2.5440 -0.9025
15154SOL    HW246883   7.981   2.693   0.072 -0.3224  0.3734  2.4147
15155SOL     OW46884   4.573   2.177   3.954 -0.0537  0.4076  0.5692
15155SOL    HW146885   4.609   2.123   3.883  0.2762  1.2449  0.0810
15155SOL    HW246886   4.564   2.264   3.915 -0.1237  0.8192  1.4802
15156SOL     OW46887   3.832   0.089   7.286  0.4531  0.5462  0.2882
15156SOL    HW146888   3.801   0.002   7.262  0.7431  0.8009 -1.1289
15156SOL    HW246889   3.766   0.123   7.346 -0.2408 -0.2112 -0.0322
15157SOL     OW46890   1.501   0.521   5.223  0.0231  0.0214  0.7443
15157SOL    HW146891   1.503   0.519   5.319  2.0008  1.8938  0.8046
15157SOL    HW246892   1.468   0.608   5.201  1.2314  0.2601 -0.2325
15158SOL     OW46893   3.253   4.216   6.071 -0.0628 -0.1164  0.2031
15158SOL    HW146894   3.195   4.231   6.146 -0.1809  2.7103 -0.3431
15158SOL    HW246895   3.208   4.257   5.997  2.3078  1.7386 -0.3501
15159SOL     OW46896   4.076   7.175   7.254  0.2499 -0.5796  0.0652
15159SOL    HW146897   4.163   7.143   7.277  0.3246  0.7026  1.7776
15159SOL    HW246898   4.092   7.261   7.215 -0.2072 -0.6859 -0.3632
15160SOL     OW46899   4.076   4.427   7.395  0.0564  0.2838  0.4154
15160SOL    HW146900   4.020   4.353   7.372 -1.8240  0.9858  2.3579
15160SOL    HW246901   4.046   4.498   7.338  3.0458 -0.7127 -2.7328
15161SOL     OW46902   0.300   6.235   1.500 -0.2247 -0.0947  0.4190
15161SOL    HW146903   0.277   6.200   1.586 -0.5767 -0.9681 -0.0184
15161SOL    HW246904   0.394   6.251   1.505 -0.0763 -0.9996  0.6812
15162SOL     OW46905   2.256   3.169   3.442 -0.0409 -0.8122 -0.1765
15162SOL    HW146906   2.245   3.250   3.492  0.3917 -0.8588  0.0020
15162SOL    HW246907   2.269   3.198   3.352 -0.5067 -0.7125 -0.2126
15163SOL     OW46908   2.587   6.273   6.168 -0.2237 -0.2203  0.2328
15163SOL    HW146909   2.506   6.319   6.189 -1.1860 -1.4669 -0.6042
15163SOL    HW246910   2.653   6.314   6.223 -1.8087 -0.5311  2.4920
15164SOL     OW46911   4.626   7.587   1.891 -0.2148 -0.9580 -0.0857
15164SOL    HW146912   4.705   7.533   1.878 -0.4410 -1.9131  1.9793
15164SOL    HW246913   4.569   7.565   1.818  0.7514 -1.5937 -0.6636
15165SOL     OW46914   5.016   2.045   0.346 -0.2780  0.1529 -0.2970
15165SOL    HW146915   5.063   2.023   0.426  0.4378 -1.2794 -1.0765
15165SOL    HW246916   5.032   2.139   0.334 -0.2384  0.3443  1.1110
15166SOL     OW46917   6.871   4.546   0.836  0.3212 -0.0113 -0.3066
15166SOL    HW146918   6.948   4.602   0.827  0.2154  0.1263 -0.3715
15166SOL    HW246919   6.892   4.486   0.907  0.4449  0.0996 -0.2502
15167SOL     OW46920   6.601   6.288   5.482 -0.1154 -0.1110  0.2034
15167SOL    HW146921   6.612   6.354   5.414  1.8984 -0.7270 -0.1246
15167SOL    HW246922   6.516   6.309   5.522 -0.5667  1.2697 -1.3711
15168SOL     OW46923   0.021   0.767   1.864  0.0007  0.7142 -0.2025
15168SOL    HW146924   0.015   0.838   1.928 -0.5114  0.5767 -0.0946
15168SOL    HW246925   0.104   0.724   1.884  0.5177  1.5406 -0.5431
15169SOL     OW46926   3.030   2.884   2.941 -0.0355 -0.4246 -0.0482
15169SOL    HW146927   3.000   2.881   3.032  0.2458  0.7375  0.1045
15169SOL    HW246928   3.000   2.969   2.909 -3.0575 -2.0824 -2.1247
15170SOL     OW46929   0.843   2.815   4.998  0.0713 -0.1640 -0.3822
15170SOL    HW146930   0.808   2.739   5.045 -0.2529 -0.1509 -0.6019
15170SOL    HW246931   0.767   2.872   4.984  0.1715 -0.1553 -0.9004
15171SOL     OW46932   2.488   0.547   2.790  0.0187  0.8649 -0.3871
15171SOL    HW146933   2.549   0.477   2.814 -0.4813  0.3646 -0.5600
15171SOL    HW246934   2.414   0.536   2.850 -0.0462  1.2726 -0.3913
15172SOL     OW46935   2.405   3.949   0.766  0.1552 -0.4497 -0.1227
15172SOL    HW146936   2.317   3.918   0.749 -0.4269  1.9525 -2.1530
15172SOL    HW246937   2.441   3.967   0.679  1.9756  0.3194  0.7396
15173SOL     OW46938   2.811   6.147   0.782 -0.1868  0.5033  0.1226
15173SOL    HW146939   2.752   6.208   0.739  0.1023 -0.8090 -2.3022
15173SOL    HW246940   2.886   6.141   0.723  0.5415 -0.9532  1.1373
15174SOL     OW46941   0.093   3.638   3.647  0.3897 -0.4029  0.6456
15174SOL    HW146942   0.072   3.618   3.738  1.4964  1.9959  1.5092
15174SOL    HW246943   0.188   3.655   3.647  0.2942  0.3059 -0.8229
15175SOL     OW46944   4.328   3.395   1.750  0.0179  0.1985 -0.4479
15175SOL    HW146945   4.246   3.363   1.786 -0.1651  0.9047 -0.2157
15175SOL    HW246946   4.342   3.343   1.671 -1.3681  0.9901 -1.2624
15176SOL     OW46947   3.918   6.954   3.649 -0.0595  0.2187 -0.9673
15176SOL    HW146948   3.976   7.026   3.625  0.3513 -0.3706 -1.8001
15176SOL    HW246949   3.906   6.963   3.743  3.6409 -1.1940 -0.1943
15177SOL     OW46950   2.734   7.946   5.986  0.2408  0.1520 -0.4281
15177SOL    HW146951   2.774   8.021   6.030  1.2663  0.9475 -2.5605
15177SOL    HW246952   2.677   7.907   6.052  0.9788  1.7887  1.2760
15178SOL     OW46953   5.974   4.616   1.180  0.0302 -0.0619 -0.4165
15178SOL    HW146954   5.938   4.632   1.093  1.0393  0.6708 -0.7172
15178SOL    HW246955   6.064   4.586   1.164  0.4177  0.6299  0.3768
15179SOL     OW46956   3.816   4.580   2.478 -0.2860 -0.3114  0.7034
15179SOL    HW146957   3.759   4.543   2.544 -1.1024  2.3147  1.6108
15179SOL    HW246958   3.758   4.602   2.405  0.1229 -0.5623  0.2961
15180SOL     OW46959   0.728   7.066   2.510  0.3581 -0.0569 -0.3231
15180SOL    HW146960   0.706   7.089   2.419  2.6040  0.8036 -0.6931
15180SOL    HW246961   0.698   6.975   2.519 -0.9931  0.2264 -1.5121
15181SOL     OW46962   6.214   6.670   2.815 -0.2271  0.6377  0.1649
15181SOL    HW146963   6.238   6.666   2.722 -1.0753 -1.3861 -0.0289
15181SOL    HW246964   6.165   6.589   2.830 -1.4176  1.6365  2.0366
15182SOL     OW46965   2.266   5.015   1.085 -0.3139  0.0208  0.2635
15182SOL    HW146966   2.359   5.030   1.103  0.0088 -2.3623  0.9296
15182SOL    HW246967   2.265   4.969   1.001 -0.8903 -0.0987  0.3291
15183SOL     OW46968   7.667   1.286   5.615 -0.0775 -0.3004  0.3391
15183SOL    HW146969   7.698   1.371   5.646 -0.1525 -1.5525  4.3375
15183SOL    HW246970   7.574   1.285   5.637 -0.2891 -1.1483 -0.5133
15184SOL     OW46971   6.959   0.559   0.783  0.5267  0.8383  0.0451
15184SOL    HW146972   6.883   0.545   0.727 -0.5789  2.5842  1.0224
15184SOL    HW246973   7.028   0.588   0.723  0.5807 -1.0775 -0.8960
15185SOL     OW46974   1.617   0.686   6.700  0.5352 -0.3045  0.2149
15185SOL    HW146975   1.697   0.734   6.723  0.0318  0.0188  1.3904
15185SOL    HW246976   1.567   0.684   6.781 -0.7617 -0.2882 -0.5624
15186SOL     OW46977   5.963   4.428   6.146 -0.5051  0.1124 -0.1488
15186SOL    HW146978   5.870   4.416   6.163 -0.2676 -0.4695  0.8302
15186SOL    HW246979   6.000   4.455   6.231  0.2286  0.2281 -0.4960
15187SOL     OW46980   1.218   7.705   1.875 -0.2136  0.4765 -0.3385
15187SOL    HW146981   1.135   7.706   1.829 -0.6920  1.3278  0.5089
15187SOL    HW246982   1.242   7.797   1.885 -0.5235  0.3812  1.7596
15188SOL     OW46983   2.391   0.341   5.915  0.0020  0.0760 -0.1307
15188SOL    HW146984   2.346   0.320   5.834 -1.6875  0.7370  0.5912
15188SOL    HW246985   2.484   0.338   5.893 -0.2002 -3.6577 -1.1423
15189SOL     OW46986   0.745   4.994   7.124 -0.2615  0.2284 -0.1466
15189SOL    HW146987   0.672   4.996   7.186  0.7208 -1.3854  1.1223
15189SOL    HW246988   0.770   4.902   7.118 -0.7085  0.1752 -3.4773
15190SOL     OW46989   6.535   5.230   3.363 -0.2684  0.6241 -0.0044
15190SOL    HW146990   6.494   5.243   3.448  1.2111  2.5203  0.5133
15190SOL    HW246991   6.502   5.303   3.309  0.2451  0.5451 -0.4402
15191SOL     OW46992   2.353   0.847   4.937  0.1134  0.2920 -0.5121
15191SOL    HW146993   2.443   0.818   4.950  0.9519  1.7929 -2.4122
15191SOL    HW246994   2.306   0.768   4.910  1.5158 -0.0372 -2.1630
15192SOL     OW46995   2.576   7.289   7.203 -0.0911 -0.0728 -0.2484
15192SOL    HW146996   2.642   7.243   7.151 -0.1104 -0.7976  0.3446
15192SOL    HW246997   2.504   7.306   7.142 -0.4168 -1.5431 -0.2959
15193SOL     OW46998   3.046   0.697   3.392  0.1320 -0.0108  0.1949
15193SOL    HW146999   2.990   0.636   3.440  1.2718 -2.8678 -1.8123
15193SOL    HW247000   3.114   0.721   3.455  0.0888 -1.5031  0.8611
15194SOL     OW47001   7.914   6.158   6.655  0.1141  0.2460  0.1450
15194SOL    HW147002   7.993   6.183   6.704 -0.1466 -1.0326  1.2973
15194SOL    HW247003   7.880   6.241   6.621  1.3462  0.9564  0.5609
15195SOL     OW47004   0.682   3.382   5.227  0.2839  0.4859 -0.0543
15195SOL    HW147005   0.623   3.349   5.159  0.3596  0.0995  0.0633
15195SOL    HW247006   0.623   3.417   5.294  0.2187  1.3307 -0.5374
15196SOL     OW47007   7.045   7.826   0.721 -0.6636 -0.1412 -0.0834
15196SOL    HW147008   7.105   7.765   0.679 -1.4717 -1.7969  1.0910
15196SOL    HW247009   7.090   7.911   0.716  0.4553 -0.7862 -1.7912
15197SOL     OW47010   2.085   4.536   4.744  0.2075 -0.3226 -0.6053
15197SOL    HW147011   2.133   4.530   4.826  1.6474  3.5241 -0.9507
15197SOL    HW247012   2.137   4.483   4.682 -0.1515 -2.1358  0.5698
15198SOL     OW47013   7.061   5.940   3.429 -0.5822  0.0353  0.4797
15198SOL    HW147014   7.131   5.968   3.489 -0.1003 -0.7020  0.2748
15198SOL    HW247015   7.070   5.845   3.425 -0.4145  0.0924 -0.9862
15199SOL     OW47016   7.630   5.264   7.981 -0.2669 -0.2088  0.5571
15199SOL    HW147017   7.716   5.263   8.023  0.0547 -0.8521 -0.0844
15199SOL    HW247018   7.624   5.179   7.937 -0.8385  0.2075 -0.1916
15200SOL     OW47019   7.191   5.327   4.323  0.6150  0.0219  0.1546
15200SOL    HW147020   7.150   5.272   4.389 -0.2935 -0.5984 -0.8753
15200SOL    HW247021   7.282   5.300   4.322  0.2058 -1.4718 -0.2870
15201SOL     OW47022   5.696   2.259   6.180  0.5657  0.0599 -0.1229
15201SOL    HW147023   5.662   2.184   6.229  0.1611 -0.1616 -0.7272
15201SOL    HW247024   5.706   2.328   6.245  0.7705 -0.4630  0.4082
15202SOL     OW47025   1.433   7.541   1.861 -0.6234  0.2107 -0.3088
15202SOL    HW147026   1.474   7.546   1.948  2.2137 -1.6068 -1.4056
15202SOL    HW247027   1.356   7.598   1.868 -1.6670 -1.2923  3.9356
15203SOL     OW47028   1.207   7.447   5.542  0.2007  0.3541 -0.5172
15203SOL    HW147029   1.176   7.537   5.554 -0.0947 -0.0060  2.1490
15203SOL    HW247030   1.127   7.395   5.533  0.3152  0.1785 -0.5379
15204SOL     OW47031   2.539   1.459   6.803  0.3852  0.0951 -0.1394
15204SOL    HW147032   2.604   1.414   6.857 -1.3499 -2.4541 -0.0013
15204SOL    HW247033   2.533   1.406   6.723 -1.3198  0.3821 -0.2520
15205SOL     OW47034   5.941   8.060   3.925  0.4917 -1.1841 -0.1790
15205SOL    HW147035   5.951   8.129   3.860  0.1902  0.0302  0.9906
15205SOL    HW247036   6.017   8.004   3.914  1.1596 -0.2087 -0.6671
15206SOL     OW47037   7.626   3.768   6.352 -0.3474 -0.3568  0.0215
15206SOL    HW147038   7.612   3.701   6.419  0.8238 -0.9638 -0.3157
15206SOL    HW247039   7.546   3.767   6.300 -0.2166 -1.7681 -0.1998
15207SOL     OW47040   3.234   5.253   3.308  0.2629  0.0058  0.1010
15207SOL    HW147041   3.147   5.286   3.329 -0.3495 -0.8394 -0.9941
15207SOL    HW247042   3.239   5.168   3.352  1.3643  0.9519  1.8985
15208SOL     OW47043   6.665   4.729   0.827 -0.2396  0.5978  0.1916
15208SOL    HW147044   6.603   4.700   0.893 -0.3846 -1.2048 -0.6780
15208SOL    HW247045   6.748   4.687   0.851  0.0250  0.9816 -0.0373
15209SOL     OW47046   0.479   7.843   2.433 -0.6601  0.2486 -0.3665
15209SOL    HW147047   0.524   7.771   2.477  0.3221  2.1258  1.9093
15209SOL    HW247048   0.547   7.910   2.421 -1.5859  0.9424 -2.2156
15210SOL     OW47049   0.839   2.415   5.752 -0.0527  0.3484 -0.1906
15210SOL    HW147050   0.928   2.398   5.782  0.9091  1.2310 -2.3469
15210SOL    HW247051   0.806   2.482   5.812  0.4662 -0.4436  1.0215
15211SOL     OW47052   2.835   3.550   4.540 -0.0070  0.0791  0.8598
15211SOL    HW147053   2.897   3.534   4.470  0.6680  4.5209  0.1129
15211SOL    HW247054   2.832   3.469   4.590  1.4500 -2.4198 -2.7333
15212SOL     OW47055   2.116   2.404   3.723  0.5931  0.0891 -0.0345
15212SOL    HW147056   2.114   2.456   3.643 -0.8598  1.9868  1.1249
15212SOL    HW247057   2.040   2.347   3.717  1.1658 -0.6585 -0.4916
15213SOL     OW47058   4.965   1.856   3.708 -0.6275  0.6305  0.2126
15213SOL    HW147059   4.909   1.779   3.724  1.6552 -0.8054  2.0725
15213SOL    HW247060   4.988   1.850   3.616 -1.6908 -0.0265 -0.0365
15214SOL     OW47061   3.257   7.491   4.983  0.4586  0.1615 -0.3063
15214SOL    HW147062   3.325   7.455   5.039  1.1245 -0.0636 -1.2541
15214SOL    HW247063   3.176   7.450   5.014  1.0813 -1.4737 -0.7917
15215SOL     OW47064   1.128   7.418   1.371 -0.3368  0.2388  0.2293
15215SOL    HW147065   1.141   7.350   1.437 -2.6866 -2.2037 -1.6052
15215SOL    HW247066   1.205   7.413   1.315 -1.1167 -2.1345 -0.7589
15216SOL     OW47067   3.392   1.642   1.814 -0.1588  0.4131 -0.0311
15216SOL    HW147068   3.408   1.549   1.829 -0.4023  0.4427  0.4237
15216SOL    HW247069   3.376   1.649   1.720  0.3015  0.0635 -0.1389
15217SOL     OW47070   5.642   7.024   7.682 -0.0699 -0.6474 -0.1329
15217SOL    HW147071   5.715   6.997   7.738  1.2778 -0.2218 -1.6117
15217SOL    HW247072   5.657   7.117   7.667  0.2465 -0.9878 -2.1021
15218SOL     OW47073   0.065   6.214   0.903  0.1674  0.0694 -0.2458
15218SOL    HW147074   0.123   6.162   0.847 -1.1454 -1.8750  0.0800
15218SOL    HW247075   0.020   6.273   0.843  0.3399 -0.4870 -0.9366
15219SOL     OW47076   5.054   4.973   6.793  0.3369  0.1360 -0.1201
15219SOL    HW147077   5.079   5.049   6.846  1.4202 -0.9149  0.9359
15219SOL    HW247078   5.102   4.983   6.712 -1.3214  1.7550 -0.9872
15220SOL     OW47079   4.501   5.990   2.673  0.4523  0.5653 -0.3081
15220SOL    HW147080   4.457   6.011   2.591 -0.3002  0.7947  0.1489
15220SOL    HW247081   4.555   6.067   2.692 -0.9862  1.4180  0.4802
15221SOL     OW47082   1.518   2.502   1.243  0.2504 -0.4568 -0.7179
15221SOL    HW147083   1.518   2.479   1.150  0.8505 -0.3288 -0.7552
15221SOL    HW247084   1.428   2.530   1.261 -0.3163 -2.1060 -0.8380
15222SOL     OW47085   3.175   7.698   6.820  0.1834  0.1418 -0.5308
15222SOL    HW147086   3.220   7.761   6.764  0.5860 -1.6679 -2.3654
15222SOL    HW247087   3.244   7.637   6.847 -0.1435  0.5869  1.4131
15223SOL     OW47088   2.042   0.076   7.880 -0.4217  0.1633  0.5353
15223SOL    HW147089   2.084   0.033   7.805 -2.5527 -1.5891  0.2510
15223SOL    HW247090   2.113   0.087   7.944  1.3922  1.4776 -1.5655
15224SOL     OW47091   1.765   0.758   3.034 -0.2394  0.5837 -0.4931
15224SOL    HW147092   1.683   0.804   3.053  0.2453  0.5169  2.0832
15224SOL    HW247093   1.833   0.821   3.055  0.4023 -0.5192  0.8483
15225SOL     OW47094   1.965   6.352   3.463 -0.0099  0.4319  0.2837
15225SOL    HW147095   1.874   6.350   3.493  0.0380 -2.5364  0.5402
15225SOL    HW247096   1.967   6.421   3.398 -2.3979  0.7319  0.4348
15226SOL     OW47097   2.162   1.489   5.651  0.1676  0.1172 -0.1687
15226SOL    HW147098   2.090   1.427   5.667 -0.2664 -0.0156 -2.2660
15226SOL    HW247099   2.236   1.433   5.627  0.2019  0.3332 -0.5771
15227SOL     OW47100   4.627   7.594   7.164 -0.5895 -0.3703  0.2128
15227SOL    HW147101   4.557   7.561   7.221 -0.4173  0.6748  1.0528
15227SOL    HW247102   4.650   7.679   7.200  0.0785 -0.0208 -0.9659
15228SOL     OW47103   4.301   0.725   3.763  0.2836  0.1128 -0.1912
15228SOL    HW147104   4.260   0.758   3.844 -0.0939  0.6160 -0.5826
15228SOL    HW247105   4.343   0.643   3.790  0.1331  0.2554  0.5112
15229SOL     OW47106   1.006   0.889   3.183 -0.2886 -0.1901 -0.2701
15229SOL    HW147107   1.052   0.915   3.103 -1.2163 -0.5229 -0.9245
15229SOL    HW247108   0.992   0.971   3.230 -0.9714  0.1917 -1.1239
15230SOL     OW47109   7.243   1.338   4.965  0.8343 -0.0743 -0.8262
15230SOL    HW147110   7.252   1.341   4.869  1.2633 -0.8648 -0.8184
15230SOL    HW247111   7.332   1.347   4.998  0.6602  0.4390 -0.4881
15231SOL     OW47112   8.034   4.522   2.849 -1.0572 -0.0885 -0.0459
15231SOL    HW147113   8.059   4.489   2.935 -1.2726  0.8811  0.3961
15231SOL    HW247114   7.981   4.451   2.811  1.5131 -1.8208 -0.6511
15232SOL     OW47115   3.163   7.057   7.893 -0.0571 -0.6417  0.0973
15232SOL    HW147116   3.209   7.133   7.859 -0.8588 -0.9475 -1.7645
15232SOL    HW247117   3.223   7.019   7.957  0.1907  1.7390  1.3830
15233SOL     OW47118   3.835   5.961   7.333  0.7654  0.3825  0.0492
15233SOL    HW147119   3.794   5.905   7.267  0.6454  1.8158 -1.1323
15233SOL    HW247120   3.863   5.900   7.401 -1.0296 -0.9160 -0.3004
15234SOL     OW47121   3.725   2.341   1.379  0.2466 -0.1473 -0.7191
15234SOL    HW147122   3.657   2.337   1.446 -1.1840  1.6560 -1.9726
15234SOL    HW247123   3.794   2.283   1.411 -0.7355  0.0128  1.8838
15235SOL     OW47124   2.768   6.122   1.345  0.3430 -0.2247  0.0309
15235SOL    HW147125   2.820   6.103   1.267  0.8864  0.2055  0.2745
15235SOL    HW247126   2.834   6.138   1.413 -0.1061  0.4750  0.3120
15236SOL     OW47127   6.985   5.655   3.315  0.2045 -0.0216 -0.0024
15236SOL    HW147128   7.007   5.564   3.295  0.4609  0.3663 -1.6580
15236SOL    HW247129   6.983   5.659   3.410  0.9353 -1.5829  0.1097
15237SOL     OW47130   2.315   5.553   2.958  0.6822 -0.3708  0.0729
15237SOL    HW147131   2.333   5.645   2.938  0.3761  0.2229  2.2874
15237SOL    HW247132   2.387   5.505   2.917  1.0770  0.8919 -0.7565
15238SOL     OW47133   5.060   5.712   4.485  0.5167 -0.1442 -0.1064
15238SOL    HW147134   4.968   5.736   4.490  0.5447 -0.1446  0.4149
15238SOL    HW247135   5.091   5.714   4.575  1.0888  0.1004 -0.2992
15239SOL     OW47136   6.890   6.094   2.909 -0.1485  0.0715 -0.4062
15239SOL    HW147137   6.981   6.123   2.895 -0.3332  1.8375  1.6123
15239SOL    HW247138   6.893   6.045   2.991 -1.1942  1.2901  0.3948
15240SOL     OW47139   6.260   0.846   1.254  0.0568  0.0975  0.4548
15240SOL    HW147140   6.309   0.916   1.298  0.0215  0.9330 -0.7901
15240SOL    HW247141   6.317   0.770   1.261  1.6912  1.0854 -1.0929
15241SOL     OW47142   3.122   4.031   5.617  0.5999 -0.2739 -0.4737
15241SOL    HW147143   3.176   4.092   5.566  0.8991 -1.0332 -1.0867
15241SOL    HW247144   3.037   4.033   5.574  0.3351  0.3849  0.0606
15242SOL     OW47145   1.315   1.397   1.290 -0.3250  0.6797  0.3087
15242SOL    HW147146   1.275   1.480   1.315 -0.0557  0.1846  2.5470
15242SOL    HW247147   1.340   1.356   1.372  2.6740 -0.1178 -0.8766
15243SOL     OW47148   3.075   3.639   0.062  0.2393  0.1778 -0.0086
15243SOL    HW147149   3.161   3.607   0.035  0.1220 -1.8984  1.7741
15243SOL    HW247150   3.013   3.573   0.029 -0.5594  1.0550 -0.3120
15244SOL     OW47151   1.456   7.281   3.105  0.0542  0.0255  0.0645
15244SOL    HW147152   1.368   7.258   3.133  0.0819  1.0710  1.0420
15244SOL    HW247153   1.444   7.359   3.051  0.4657  0.7038  0.9451
15245SOL     OW47154   3.320   3.939   7.165  0.3608  0.1771 -0.2214
15245SOL    HW147155   3.398   3.984   7.197 -0.5028  1.4656  0.1526
15245SOL    HW247156   3.334   3.930   7.070  1.0546  0.1831 -0.1201
15246SOL     OW47157   6.910   6.506   0.207  0.0524 -0.2111 -0.6051
15246SOL    HW147158   7.000   6.504   0.175 -0.1239  0.4515 -1.1622
15246SOL    HW247159   6.884   6.598   0.201 -0.6121 -0.3721 -0.3030
15247SOL     OW47160   1.737   7.132   1.235 -0.0408 -0.1340 -1.2677
15247SOL    HW147161   1.733   7.128   1.330  0.7007  0.9977 -1.1730
15247SOL    HW247162   1.696   7.050   1.206 -0.4838 -0.3867  0.0048
15248SOL     OW47163   5.194   4.002   6.418  0.2052 -0.3145  0.1737
15248SOL    HW147164   5.157   4.074   6.367  0.8652  0.7680  1.1731
15248SOL    HW247165   5.130   3.932   6.411 -1.2622  0.9473  0.5257
15249SOL     OW47166   1.205   0.145   4.326  0.0829 -0.2091  0.2301
15249SOL    HW147167   1.209   0.066   4.272 -0.9490  0.4927 -0.9355
15249SOL    HW247168   1.190   0.216   4.263  1.6661  1.0221  1.1733
15250SOL     OW47169   0.860   7.296   5.022 -0.1361 -0.0288  0.0301
15250SOL    HW147170   0.794   7.363   5.037 -1.3773 -0.7776 -1.7195
15250SOL    HW247171   0.820   7.215   5.055  2.0487  0.1684  3.8794
15251SOL     OW47172   1.017   2.352   0.380  0.3991 -0.2137  0.1395
15251SOL    HW147173   1.027   2.264   0.343  0.7681  0.2108 -0.7944
15251SOL    HW247174   0.940   2.387   0.335  0.5859  0.1431  0.0968
15252SOL     OW47175   5.507   5.479   4.977 -0.8945  0.2351  0.3606
15252SOL    HW147176   5.489   5.520   4.892 -2.5354  0.1003  0.5970
15252SOL    HW247177   5.425   5.434   4.999  0.0423 -1.1457  1.2402
15253SOL     OW47178   0.221   1.168   1.365 -0.0605  0.2615 -0.0105
15253SOL    HW147179   0.301   1.175   1.417  0.4342 -0.4489 -0.6576
15253SOL    HW247180   0.249   1.125   1.284 -0.7493  1.5819 -0.9874
15254SOL     OW47181   2.012   5.568   2.552  0.0651 -0.1396  0.4609
15254SOL    HW147182   1.953   5.535   2.484  0.7600  0.8018 -0.6420
15254SOL    HW247183   1.982   5.525   2.633 -0.7643 -1.3062 -0.4292
15255SOL     OW47184   3.129   3.422   7.551  0.1751 -0.0273 -0.4884
15255SOL    HW147185   3.124   3.496   7.611 -0.3132 -0.8428  0.5093
15255SOL    HW247186   3.118   3.461   7.464  1.6741  1.2705 -0.1343
15256SOL     OW47187   2.366   8.012   7.468  0.1295  0.1353 -0.1366
15256SOL    HW147188   2.373   8.101   7.434  0.5636  0.0089 -0.3742
15256SOL    HW247189   2.286   8.013   7.521 -0.1482  0.5273 -0.5585
15257SOL     OW47190   0.222   4.851   4.412  0.3694 -0.1254 -0.5421
15257SOL    HW147191   0.314   4.846   4.385  0.6903 -0.0862  0.4944
15257SOL    HW247192   0.221   4.816   4.501 -0.4934  0.5807 -0.2585
15258SOL     OW47193   0.628   0.779   2.554  0.1229  0.3910 -0.7038
15258SOL    HW147194   0.590   0.841   2.616 -1.1707 -2.1782  1.2431
15258SOL    HW247195   0.723   0.789   2.566 -0.0682  1.4491  0.0972
15259SOL     OW47196   4.239   5.830   1.045 -0.1202  0.0663  0.2834
15259SOL    HW147197   4.220   5.800   0.956 -0.2231  2.5394 -0.6028
15259SOL    HW247198   4.326   5.794   1.064 -0.6858 -1.6631 -0.2240
15260SOL     OW47199   4.274   0.433   6.519 -0.2057 -0.4711  0.2234
15260SOL    HW147200   4.369   0.422   6.517 -0.3095 -1.5340  0.5677
15260SOL    HW247201   4.261   0.527   6.534  0.7851 -0.3220  0.2179
15261SOL     OW47202   3.674   7.308   2.307  0.2072 -0.6944  0.1273
15261SOL    HW147203   3.671   7.402   2.287  2.2410 -0.6259 -0.1426
15261SOL    HW247204   3.607   7.295   2.374 -0.8519  0.7312 -0.6110
15262SOL     OW47205   5.208   1.098   5.553  0.6568  0.1715 -0.0775
15262SOL    HW147206   5.179   1.160   5.486  3.3957 -0.4588 -2.0437
15262SOL    HW247207   5.165   1.015   5.530  1.1025  0.1097 -0.7209
15263SOL     OW47208   5.731   5.236   5.658 -0.2548 -0.5042  0.5035
15263SOL    HW147209   5.727   5.141   5.672 -0.3466 -0.4358  0.9593
15263SOL    HW247210   5.641   5.266   5.671  0.0007 -0.1873  1.6462
15264SOL     OW47211   7.948   1.537   0.639  0.0933  0.0932  0.1214
15264SOL    HW147212   7.926   1.444   0.643 -1.1062  0.3928  1.5381
15264SOL    HW247213   8.009   1.544   0.566 -1.1795 -1.5205 -1.1853
15265SOL     OW47214   5.454   2.809   4.271 -0.0338  0.0646  0.0572
15265SOL    HW147215   5.441   2.808   4.176  0.3816 -1.5000 -0.0151
15265SOL    HW247216   5.411   2.729   4.302  1.2354 -0.2973  0.9660
15266SOL     OW47217   6.235   3.593   6.691  0.3492 -0.3664 -0.4654
15266SOL    HW147218   6.293   3.668   6.703  0.5946 -0.5312 -0.6040
15266SOL    HW247219   6.186   3.586   6.773 -2.3338  2.1703 -1.6354
15267SOL     OW47220   5.207   2.186   1.808  0.0976  0.5897  0.4503
15267SOL    HW147221   5.115   2.164   1.793  0.2003  0.6933 -0.4098
15267SOL    HW247222   5.251   2.101   1.810  0.5905  0.5426 -3.5165
15268SOL     OW47223   7.511   5.568   0.777  0.2412  0.3808  0.7529
15268SOL    HW147224   7.422   5.535   0.792  0.4582  0.2672  1.8495
15268SOL    HW247225   7.506   5.660   0.801  0.0030  0.8247 -0.8865
15269SOL     OW47226   4.510   3.632   0.328 -0.0268  0.2392  0.6669
15269SOL    HW147227   4.582   3.625   0.265 -1.4410 -1.9355 -0.8541
15269SOL    HW247228   4.552   3.620   0.414  1.3784 -1.5058 -0.2024
15270SOL     OW47229   1.821   6.725   3.968 -0.4716  0.1624  0.6147
15270SOL    HW147230   1.791   6.775   4.044  0.0436  3.2624 -1.0715
15270SOL    HW247231   1.745   6.672   3.943 -1.6805  1.4457  1.4453
15271SOL     OW47232   5.811   5.800   7.867 -0.5962 -0.1759 -0.2513
15271SOL    HW147233   5.764   5.829   7.788  1.5889  0.1731 -1.5149
15271SOL    HW247234   5.787   5.864   7.934 -2.3117 -0.3317 -0.6707
15272SOL     OW47235   4.628   7.928   6.838  0.2647  0.5035 -0.2587
15272SOL    HW147236   4.720   7.952   6.827  0.7228 -0.5264  1.1260
15272SOL    HW247237   4.608   7.874   6.762  1.1604 -0.2614  0.0414
15273SOL     OW47238   7.736   4.358   2.184  0.0078 -0.4285 -0.0402
15273SOL    HW147239   7.792   4.318   2.250 -0.0944 -0.4662  0.0248
15273SOL    HW247240   7.647   4.332   2.209 -0.1376  0.5180  0.4955
15274SOL     OW47241   2.566   1.431   2.147 -0.3110 -0.2114  0.1953
15274SOL    HW147242   2.595   1.475   2.227  1.2562  0.1737 -0.5562
15274SOL    HW247243   2.553   1.502   2.084 -2.8189 -0.3703  0.4183
15275SOL     OW47244   2.089   4.049   2.423  0.0471  0.2040 -0.0166
15275SOL    HW147245   2.069   4.129   2.471  0.1450 -0.1574  0.6282
15275SOL    HW247246   2.163   4.073   2.367 -0.1111  0.6413 -0.0437
15276SOL     OW47247   7.581   1.569   6.865  0.1433 -0.5542  1.0853
15276SOL    HW147248   7.616   1.523   6.941 -0.6245 -1.7497  0.7405
15276SOL    HW247249   7.503   1.614   6.898  0.1308 -0.6063  1.1271
15277SOL     OW47250   7.835   4.787   3.330 -0.2339  0.8656  0.6507
15277SOL    HW147251   7.750   4.830   3.344 -0.1571  0.8480  1.1921
15277SOL    HW247252   7.814   4.694   3.326 -0.3456  0.9145 -0.0908
15278SOL     OW47253   5.209   0.225   1.309  0.0703  0.2446 -0.1700
15278SOL    HW147254   5.215   0.271   1.392 -0.7411 -0.8308  0.5117
15278SOL    HW247255   5.145   0.276   1.259 -1.8170 -0.8000  1.0719
15279SOL     OW47256   1.810   6.174   6.884  0.1787  0.0646  0.0338
15279SOL    HW147257   1.816   6.163   6.979 -0.4519  1.2536  0.2321
15279SOL    HW247258   1.860   6.253   6.866 -0.5272  0.4010 -0.4886
15280SOL     OW47259   5.039   1.729   0.324  0.2484 -0.1230 -0.2922
15280SOL    HW147260   4.952   1.722   0.284 -0.6984 -1.2601  1.7939
15280SOL    HW247261   5.053   1.823   0.335 -0.6553  0.0858 -0.7965
15281SOL     OW47262   3.616   0.889   1.348 -0.1047  0.5841  0.1253
15281SOL    HW147263   3.580   0.921   1.431 -1.6477 -0.7133 -0.0125
15281SOL    HW247264   3.580   0.948   1.282 -0.6042  0.3147  0.1588
15282SOL     OW47265   4.746   6.989   0.204  0.0139  0.1255  0.1150
15282SOL    HW147266   4.804   7.024   0.137  0.6922 -0.4321  0.3887
15282SOL    HW247267   4.712   7.066   0.250 -0.7241  0.5265 -1.0665
15283SOL     OW47268   1.813   8.000   1.518  0.0352  0.5975  0.3341
15283SOL    HW147269   1.718   8.011   1.509 -0.1434 -0.7251  0.3574
15283SOL    HW247270   1.845   8.000   1.427 -0.2371 -0.7522  0.2161
15284SOL     OW47271   2.597   6.446   2.969  0.1691 -0.0313 -0.6083
15284SOL    HW147272   2.503   6.463   2.958  0.0941  0.6247  0.8116
15284SOL    HW247273   2.605   6.351   2.958 -1.3615 -0.7867  3.0959
15285SOL     OW47274   5.035   7.551   3.204  0.3191  0.1674 -0.7927
15285SOL    HW147275   5.062   7.604   3.130 -0.1322  0.2200 -0.9190
15285SOL    HW247276   4.961   7.598   3.243  0.2541 -0.0950 -0.5895
15286SOL     OW47277   0.480   3.187   5.123 -0.2199 -0.1140 -0.0485
15286SOL    HW147278   0.411   3.235   5.077  1.3904  1.7706 -0.6752
15286SOL    HW247279   0.456   3.192   5.215 -0.0967  2.1084 -0.0670
15287SOL     OW47280   0.513   6.270   6.091 -0.1376  0.6699 -0.3088
15287SOL    HW147281   0.453   6.229   6.029 -1.0700  1.1746  0.2377
15287SOL    HW247282   0.563   6.333   6.039  0.7895 -0.5998 -1.0087
15288SOL     OW47283   7.304   5.008   7.918 -0.9271 -0.1570  0.7288
15288SOL    HW147284   7.355   4.929   7.903 -0.8219  0.3846 -2.5778
15288SOL    HW247285   7.338   5.071   7.854 -2.1553  2.0185  2.0779
15289SOL     OW47286   4.975   2.324   4.317  0.2908  0.1425  0.3788
15289SOL    HW147287   4.905   2.375   4.356  0.9751  0.6914  0.9256
15289SOL    HW247288   4.980   2.355   4.226  0.6488  1.0145  0.6828
15290SOL     OW47289   6.661   2.193   6.639 -0.0073 -0.1281 -0.4297
15290SOL    HW147290   6.653   2.227   6.550  2.3049  0.3256 -0.5442
15290SOL    HW247291   6.751   2.159   6.643 -0.0593 -0.1320  1.7306
15291SOL     OW47292   5.979   6.459   2.497  0.5957  0.3291 -0.3727
15291SOL    HW147293   5.964   6.382   2.551 -1.2397  0.2877 -0.8760
15291SOL    HW247294   5.915   6.523   2.528  0.9976  1.0703 -1.0364
15292SOL     OW47295   1.040   3.369   4.398  0.0420  0.3097 -0.9006
15292SOL    HW147296   1.025   3.276   4.384  0.8103 -0.1397  0.9806
15292SOL    HW247297   0.958   3.402   4.436  0.3367  0.0078  0.0278
15293SOL     OW47298   4.877   7.485   7.478  0.4025 -0.9469  0.3035
15293SOL    HW147299   4.871   7.568   7.525  0.4341 -1.0798  0.5471
15293SOL    HW247300   4.788   7.450   7.479  0.4112 -0.9691  0.3012
15294SOL     OW47301   4.698   2.251   6.660  0.1751 -0.0676  0.0857
15294SOL    HW147302   4.655   2.262   6.575 -2.2609 -1.4661  1.0440
15294SOL    HW247303   4.791   2.247   6.639 -0.3924 -1.2255 -2.6376
15295SOL     OW47304   0.086   0.721   6.668  0.5474 -0.1757 -0.7105
15295SOL    HW147305   0.051   0.677   6.590  0.3143  0.1392 -0.7844
15295SOL    HW247306   0.059   0.812   6.658 -1.9947 -0.6254  1.1289
15296SOL     OW47307   6.992   5.914   7.012 -0.2537  0.2005  0.4782
15296SOL    HW147308   7.040   5.923   6.930 -0.3973 -1.5721  0.1701
15296SOL    HW247309   6.919   5.975   7.004 -0.1657  0.1704 -0.6462
15297SOL     OW47310   7.737   2.239   0.204  0.2683 -0.3117  0.5006
15297SOL    HW147311   7.776   2.151   0.198 -1.5550 -1.1990  0.9687
15297SOL    HW247312   7.810   2.298   0.186  1.2965 -1.9367 -1.0184
15298SOL     OW47313   3.243   5.903   7.907  0.0042 -0.0212  0.3481
15298SOL    HW147314   3.171   5.861   7.860 -0.0365 -1.1448  1.3717
15298SOL    HW247315   3.218   5.995   7.912 -0.2422  0.0446 -1.3371
15299SOL     OW47316   1.522   7.609   7.856  0.0183  0.0480  0.4903
15299SOL    HW147317   1.518   7.550   7.931 -4.4416 -0.8779 -0.1774
15299SOL    HW247318   1.434   7.604   7.817  1.1723  2.8084 -3.0113
15300SOL     OW47319   4.017   0.281   5.763  0.0283 -0.2062  0.5403
15300SOL    HW147320   3.949   0.347   5.745 -1.0244 -1.2282  0.6476
15300SOL    HW247321   3.985   0.236   5.841  0.6644 -0.9358  0.3854
15301SOL     OW47322   7.310   4.457   7.535  0.3393 -0.0837 -0.2236
15301SOL    HW147323   7.330   4.551   7.529 -2.7255  0.6853 -0.3517
15301SOL    HW247324   7.280   4.445   7.625 -1.5669 -0.3449 -0.8420
15302SOL     OW47325   0.284   2.443   2.201  0.1126 -0.3739 -0.3843
15302SOL    HW147326   0.327   2.529   2.199 -1.0687  0.2560 -0.1768
15302SOL    HW247327   0.320   2.400   2.279 -2.9873  2.0810  2.7701
15303SOL     OW47328   6.290   3.013   6.754 -0.7341  0.3499 -0.0748
15303SOL    HW147329   6.196   3.014   6.767 -0.7107  0.6344  0.0758
15303SOL    HW247330   6.327   3.047   6.836 -0.6601  3.9179 -1.4384
15304SOL     OW47331   4.246   7.431   1.924 -0.4854 -0.2707  0.4695
15304SOL    HW147332   4.203   7.448   2.008  1.5447 -1.3987  1.8302
15304SOL    HW247333   4.321   7.376   1.946 -0.2610 -1.2065 -2.2012
15305SOL     OW47334   4.709   6.609   1.439 -0.2186  0.0220  0.8680
15305SOL    HW147335   4.804   6.602   1.429 -0.3878 -0.9455 -0.4804
15305SOL    HW247336   4.695   6.693   1.482  1.2086  0.6013  0.2629
15306SOL     OW47337   3.812   3.556   3.785  0.6799 -0.3373  0.1249
15306SOL    HW147338   3.889   3.589   3.739  1.4854 -0.9065  1.0121
15306SOL    HW247339   3.772   3.495   3.724  0.6368  0.3621 -0.5466
15307SOL     OW47340   1.238   3.211   6.380  0.4778 -0.3269 -0.8852
15307SOL    HW147341   1.153   3.211   6.336  0.7102  0.0393 -1.3346
15307SOL    HW247342   1.276   3.126   6.361 -0.9481 -1.6382  1.5885
15308SOL     OW47343   6.434   1.987   6.772  0.4293  0.0268 -0.2944
15308SOL    HW147344   6.507   2.001   6.712  0.1027 -0.9911 -0.9540
15308SOL    HW247345   6.475   1.965   6.856  0.8988 -1.1124 -0.8029
15309SOL     OW47346   7.357   1.468   3.579 -0.8373 -0.2190  1.0055
15309SOL    HW147347   7.350   1.561   3.598  0.0912  0.0338  0.2026
15309SOL    HW247348   7.427   1.436   3.637  0.6052  0.1386 -0.4623
15310SOL     OW47349   3.005   1.336   4.582  0.1034  0.1664  0.2296
15310SOL    HW147350   2.929   1.348   4.525  0.1266  0.4724  0.2657
15310SOL    HW247351   3.079   1.326   4.521  0.2511  1.2725  0.2059
15311SOL     OW47352   0.700   7.585   3.158  0.1714 -0.6900 -0.1306
15311SOL    HW147353   0.770   7.649   3.147  1.8404 -2.6217 -1.3455
15311SOL    HW247354   0.732   7.525   3.225 -1.0132 -0.7381  0.4174
15312SOL     OW47355   2.457   7.186   0.618  0.3377 -0.4237  0.0501
15312SOL    HW147356   2.488   7.173   0.708  1.8350  1.7853 -0.0736
15312SOL    HW247357   2.518   7.249   0.581 -2.5231  1.7615 -1.2750
15313SOL     OW47358   0.042   0.890   6.350  0.3161 -0.3665  0.0162
15313SOL    HW147359   0.049   0.795   6.354  1.4941 -0.3711 -1.2515
15313SOL    HW247360   0.132   0.920   6.333  0.1219  1.0352  1.2150
15314SOL     OW47361   3.994   3.462   4.419  0.1731  0.1763 -0.1451
15314SOL    HW147362   4.082   3.461   4.459 -0.1362  1.0579  0.5905
15314SOL    HW247363   3.994   3.386   4.361  1.6735  0.5606 -0.6964
15315SOL     OW47364   0.760   0.108   1.665 -0.4096 -0.2952  0.6335
15315SOL    HW147365   0.807   0.026   1.679 -0.4008 -0.7268 -1.5460
15315SOL    HW247366   0.710   0.121   1.745 -0.4111 -2.4240  1.0320
15316SOL     OW47367   2.831   7.907   2.092 -0.2949  0.0935 -0.0241
15316SOL    HW147368   2.920   7.881   2.113  0.0911  0.5986 -0.9991
15316SOL    HW247369   2.793   7.830   2.050 -0.8086 -0.6308  1.6561
15317SOL     OW47370   0.840   4.004   7.645  0.6059 -0.0495 -0.1562
15317SOL    HW147371   0.836   3.969   7.556 -1.3166  1.0732 -0.5649
15317SOL    HW247372   0.809   3.933   7.701 -2.6703  0.6231 -0.9173
15318SOL     OW47373   0.183   6.697   5.755  0.0809 -0.6787  0.6829
15318SOL    HW147374   0.153   6.638   5.686  0.3280 -0.3773  0.3151
15318SOL    HW247375   0.233   6.641   5.815  1.4068 -0.6310 -0.3293
15319SOL     OW47376   1.003   0.756   5.605  0.4409 -0.1148 -0.0775
15319SOL    HW147377   1.026   0.822   5.670  1.1507 -1.7962  1.4683
15319SOL    HW247378   1.053   0.781   5.527  0.6900  1.1575  0.4667
15320SOL     OW47379   2.740   6.395   6.366 -0.5413 -0.5849 -0.3188
15320SOL    HW147380   2.771   6.409   6.455 -1.0770 -1.1238 -0.0335
15320SOL    HW247381   2.731   6.482   6.329 -2.0885 -0.2275  0.7855
15321SOL     OW47382   8.021   6.223   5.428  0.7725  0.5639 -0.0284
15321SOL    HW147383   7.987   6.289   5.366 -1.3270  0.6392  1.1029
15321SOL    HW247384   7.942   6.184   5.466  2.0016 -0.6000  1.4236
15322SOL     OW47385   1.211   2.854   8.027  0.0522  0.1157 -0.1040
15322SOL    HW147386   1.301   2.823   8.039 -0.2664 -0.2734  1.5343
15322SOL    HW247387   1.157   2.777   8.046 -0.6450  0.4872 -0.5518
15323SOL     OW47388   2.424   3.997   2.592  0.1478  0.5980  0.1415
15323SOL    HW147389   2.364   3.924   2.577  1.2524 -0.3970  0.4908
15323SOL    HW247390   2.391   4.038   2.673  0.9937 -1.0974  1.4155
15324SOL     OW47391   6.794   1.499   3.692 -0.3540  0.3982 -0.4634
15324SOL    HW147392   6.724   1.563   3.697 -0.6429  0.1077 -0.7713
15324SOL    HW247393   6.863   1.542   3.642 -0.6837  0.3427 -0.9673
15325SOL     OW47394   2.307   7.426   0.330 -0.4712  0.1519 -0.4301
15325SOL    HW147395   2.238   7.368   0.298 -0.7943 -0.4542  1.2737
15325SOL    HW247396   2.332   7.390   0.415  1.5955  0.6696 -0.7569
15326SOL     OW47397   5.005   4.489   1.417  0.2519  0.8646  0.7251
15326SOL    HW147398   4.982   4.507   1.508  0.2339 -2.2449  1.4392
15326SOL    HW247399   5.101   4.489   1.416  0.2530  0.6128  0.8111
15327SOL     OW47400   7.837   1.142   3.395  0.8010  0.2092  0.1780
15327SOL    HW147401   7.862   1.061   3.438  2.2409  0.8701  0.6429
15327SOL    HW247402   7.757   1.170   3.439 -0.7093 -1.7813 -1.1094
15328SOL     OW47403   1.052   5.808   1.954 -0.3131  0.6610 -0.5186
15328SOL    HW147404   0.999   5.744   2.002 -0.1168  1.3794  0.6942
15328SOL    HW247405   1.085   5.759   1.878 -1.5108 -0.1959 -0.5188
15329SOL     OW47406   0.941   6.052   2.879  0.3173 -0.2382  0.2019
15329SOL    HW147407   0.948   6.147   2.891  0.5889 -0.3666  1.1004
15329SOL    HW247408   0.948   6.040   2.784 -0.1169  0.6694  0.0432
15330SOL     OW47409   7.344   4.338   6.277  0.5261 -0.4117  0.3788
15330SOL    HW147410   7.399   4.384   6.213  1.7236 -0.2412  1.4822
15330SOL    HW247411   7.364   4.245   6.263  0.7796 -0.3752  0.4973
15331SOL     OW47412   5.882   2.353   3.739 -0.3513 -0.5488 -0.0533
15331SOL    HW147413   5.914   2.301   3.666 -1.9342 -1.9148  0.1544
15331SOL    HW247414   5.825   2.293   3.788  1.5464 -0.0897  3.0133
15332SOL     OW47415   5.386   2.389   1.826  0.3112  0.2907  0.2854
15332SOL    HW147416   5.318   2.330   1.794  1.2379 -0.0919 -1.0845
15332SOL    HW247417   5.427   2.341   1.898 -0.2549  0.1267  0.5014
15333SOL     OW47418   6.155   6.474   5.883 -0.0724  0.0932 -0.3704
15333SOL    HW147419   6.149   6.415   5.808  0.2567  0.3554 -0.6098
15333SOL    HW247420   6.073   6.523   5.882 -0.8082 -1.0760  0.4513
15334SOL     OW47421   5.428   1.685   5.061  0.5511  0.2919 -0.5061
15334SOL    HW147422   5.515   1.723   5.049 -0.9737  3.5527 -2.8439
15334SOL    HW247423   5.413   1.686   5.155  4.2326 -3.8201  0.4431
15335SOL     OW47424   1.405   3.619   5.659  0.2211  0.3588  0.4465
15335SOL    HW147425   1.342   3.652   5.595  1.9758  0.8984 -1.0749
15335SOL    HW247426   1.461   3.694   5.679  0.7534 -0.2497  1.3222
15336SOL     OW47427   2.418   0.994   0.875 -0.0494  0.0807  0.3412
15336SOL    HW147428   2.511   0.985   0.855 -0.5958 -1.1341 -2.0083
15336SOL    HW247429   2.408   1.086   0.901  1.7588  0.2669  0.5268
15337SOL     OW47430   5.470   2.256   3.547  0.0731 -0.3476 -0.1433
15337SOL    HW147431   5.491   2.342   3.584 -2.1679  0.9721 -1.6978
15337SOL    HW247432   5.411   2.216   3.611 -0.6955  0.2752 -0.4465
15338SOL     OW47433   4.643   6.018   4.021  0.1224 -0.5199 -0.3700
15338SOL    HW147434   4.581   6.087   4.043 -0.3767 -1.2313  0.5226
15338SOL    HW247435   4.636   6.009   3.926 -1.3201 -0.7235 -0.2732
15339SOL     OW47436   2.605   3.522   0.479  0.1003 -0.2933  0.1648
15339SOL    HW147437   2.577   3.613   0.480  1.7512  0.2573  0.2738
15339SOL    HW247438   2.632   3.506   0.389  1.0819 -0.2371  0.4374
15340SOL     OW47439   5.515   1.621   3.537 -0.2463 -0.3986 -0.4260
15340SOL    HW147440   5.510   1.533   3.574  1.9552 -1.1243 -1.6580
15340SOL    HW247441   5.459   1.618   3.460 -0.2325 -0.7016 -0.4225
15341SOL     OW47442   1.109   3.794   2.420  0.4398  0.3746 -0.2880
15341SOL    HW147443   1.135   3.806   2.512 -0.5460  0.8684 -0.0542
15341SOL    HW247444   1.017   3.820   2.419  0.4238  0.2830 -1.4083
15342SOL     OW47445   7.956   2.477   6.589  0.0099  0.0610  0.3752
15342SOL    HW147446   8.044   2.497   6.622  0.4617 -0.6323 -0.3834
15342SOL    HW247447   7.911   2.561   6.589  0.3858  0.2887  1.5868
15343SOL     OW47448   2.829   3.537   3.056  0.1585 -0.2439  0.6002
15343SOL    HW147449   2.738   3.546   3.086 -0.9385 -2.0078 -1.9003
15343SOL    HW247450   2.859   3.455   3.095 -0.4244 -1.2492 -0.9768
15344SOL     OW47451   4.746   0.504   4.857  0.8557 -0.3121  0.1603
15344SOL    HW147452   4.655   0.486   4.834  0.8630 -0.1637  0.0141
15344SOL    HW247453   4.748   0.501   4.952  0.9569 -1.5861  0.1435
15345SOL     OW47454   3.540   5.997   2.722 -0.2061 -0.0536 -0.2861
15345SOL    HW147455   3.594   5.992   2.801  1.5853 -0.1921 -1.4413
15345SOL    HW247456   3.558   6.085   2.687 -1.7901  0.4030 -0.0268
15346SOL     OW47457   0.088   3.439   3.444 -0.5786 -0.7127 -0.1896
15346SOL    HW147458   0.005   3.392   3.433 -0.2573 -1.3499  0.0477
15346SOL    HW247459   0.063   3.524   3.479 -1.1259 -0.9435 -0.0094
15347SOL     OW47460   5.307   3.947   0.961  0.1746 -0.0391  0.4130
15347SOL    HW147461   5.252   3.975   1.034 -1.6445 -1.2535 -0.4155
15347SOL    HW247462   5.266   3.986   0.884  1.0557 -0.1871 -0.1439
15348SOL     OW47463   0.210   3.288   5.040  0.5287  0.4429 -0.1896
15348SOL    HW147464   0.115   3.295   5.032  0.5263  1.4205  0.5389
15348SOL    HW247465   0.236   3.368   5.086  1.7900  0.5587 -1.0658
15349SOL     OW47466   1.545   5.269   2.910 -0.2180  0.4398 -0.0895
15349SOL    HW147467   1.564   5.221   2.830 -1.3749 -0.4713  0.1549
15349SOL    HW247468   1.522   5.358   2.881 -1.8231 -0.1951 -0.9143
15350SOL     OW47469   3.425   3.013   4.643  0.5273  0.5481 -0.4714
15350SOL    HW147470   3.370   2.934   4.648  0.4144  0.5799 -1.1356
15350SOL    HW247471   3.379   3.069   4.581 -0.3574  1.9103  1.3274
15351SOL     OW47472   6.960   4.676   3.247  0.2910  0.6391  0.7050
15351SOL    HW147473   6.935   4.628   3.168 -0.7115 -0.8288  1.8546
15351SOL    HW247474   6.911   4.758   3.241 -1.1462 -0.1787  0.5896
15352SOL     OW47475   4.034   5.199   2.267 -0.2100  0.2325 -0.5065
15352SOL    HW147476   4.067   5.115   2.297 -0.7197  0.6586  1.4489
15352SOL    HW247477   4.067   5.209   2.178 -0.4248 -2.1661 -0.9068
15353SOL     OW47478   7.847   0.420   5.995  0.5674 -0.2628 -0.0123
15353SOL    HW147479   7.771   0.393   6.046  1.2672 -1.3945  0.4565
15353SOL    HW247480   7.860   0.512   6.018 -0.9594  0.1050 -0.4991
15354SOL     OW47481   3.528   0.800   3.457 -0.2447  0.0935 -0.4477
15354SOL    HW147482   3.572   0.717   3.472  0.7198  0.8278  1.0822
15354SOL    HW247483   3.598   0.865   3.456 -1.2161  1.4087  2.8043
15355SOL     OW47484   4.261   3.498   7.792  0.3771 -0.3886 -0.1515
15355SOL    HW147485   4.324   3.483   7.862  0.9858 -0.3647 -0.6832
15355SOL    HW247486   4.241   3.591   7.797  1.9030  0.0287 -1.2127
15356SOL     OW47487   5.191   6.686   3.527 -0.2169 -0.2841  0.0569
15356SOL    HW147488   5.255   6.752   3.554  0.0352 -0.1520 -0.8191
15356SOL    HW247489   5.245   6.611   3.502 -0.5083 -0.8910  1.2028
15357SOL     OW47490   3.618   7.521   0.894 -0.6059 -0.1052 -0.2208
15357SOL    HW147491   3.616   7.610   0.859 -1.3184  0.3163  0.8366
15357SOL    HW247492   3.643   7.467   0.819 -1.9869  0.7491 -1.3577
15358SOL     OW47493   2.823   0.872   4.867 -0.2352 -0.1692 -0.0640
15358SOL    HW147494   2.734   0.890   4.839 -0.2661  0.7136  0.5673
15358SOL    HW247495   2.875   0.945   4.834  0.2639 -0.6858 -0.4420
15359SOL     OW47496   6.240   6.503   3.782 -0.2529 -0.3979 -0.5078
15359SOL    HW147497   6.229   6.445   3.707  1.6738 -0.9083 -0.4461
15359SOL    HW247498   6.259   6.589   3.743  3.4584 -1.1929 -0.7412
15360SOL     OW47499   1.952   0.507   5.044 -0.1966 -0.1250 -0.3798
15360SOL    HW147500   1.881   0.567   5.023  0.3567  0.2807 -1.1413
15360SOL    HW247501   1.910   0.437   5.094 -0.8777  0.8013  0.3822
15361SOL     OW47502   6.867   6.273   6.619 -0.1479  0.0877 -0.5897
15361SOL    HW147503   6.917   6.301   6.543  0.5939  0.9184  0.1804
15361SOL    HW247504   6.874   6.177   6.618  3.0587  0.1791  0.4648
15362SOL     OW47505   2.291   5.256   7.790  0.6273 -0.4162  0.1592
15362SOL    HW147506   2.338   5.185   7.833  3.3874  0.3842 -1.3014
15362SOL    HW247507   2.291   5.233   7.697  2.2469  1.7515 -0.4485
15363SOL     OW47508   2.624   2.069   0.875  0.1892  0.5174  0.2370
15363SOL    HW147509   2.655   2.083   0.965 -0.2638  0.9890  0.3222
15363SOL    HW247510   2.654   2.146   0.828 -0.8405  0.9902  0.3213
15364SOL     OW47511   1.932   4.147   2.183 -0.8104  0.7144  0.1706
15364SOL    HW147512   1.939   4.062   2.228 -2.0824  0.3173 -0.3186
15364SOL    HW247513   1.884   4.127   2.102  1.3085  1.4245 -1.3619
15365SOL     OW47514   0.096   2.424   5.207 -0.5760 -0.4833  0.2237
15365SOL    HW147515   0.003   2.446   5.214 -0.5597 -0.1952 -0.3357
15365SOL    HW247516   0.141   2.509   5.215 -0.3476 -0.6476  0.7029
15366SOL     OW47517   7.229   7.688   1.851 -0.0178  0.1861  0.6713
15366SOL    HW147518   7.182   7.614   1.889 -1.3620  1.7469  2.2684
15366SOL    HW247519   7.177   7.715   1.776  0.4801 -0.4663  0.0809
15367SOL     OW47520   1.260   3.508   1.260  0.0213 -0.2135 -0.2595
15367SOL    HW147521   1.233   3.554   1.181 -1.8472 -0.9465 -0.0962
15367SOL    HW247522   1.191   3.527   1.324  1.6567  0.6271  1.3287
15368SOL     OW47523   0.079   5.460   4.664 -0.1553  0.0304  0.0394
15368SOL    HW147524  -0.005   5.487   4.701 -0.0725 -0.0879  0.3195
15368SOL    HW247525   0.086   5.509   4.582 -0.6188 -0.1555 -0.1187
15369SOL     OW47526   2.362   2.362   6.493  0.3002 -0.0696 -0.6731
15369SOL    HW147527   2.415   2.307   6.551 -0.4511  0.6986  0.7888
15369SOL    HW247528   2.374   2.323   6.406  1.6349 -1.1217 -0.0619
15370SOL     OW47529   5.208   7.410   4.547 -0.3825  0.6490 -0.2185
15370SOL    HW147530   5.168   7.328   4.517  1.4962 -0.3156 -0.2519
15370SOL    HW247531   5.204   7.468   4.472 -1.8546  0.6642 -0.1579
15371SOL     OW47532   7.567   6.771   5.696 -0.2808 -0.2246  0.1422
15371SOL    HW147533   7.568   6.680   5.667  0.9438 -0.9825  2.3522
15371SOL    HW247534   7.610   6.770   5.781 -2.4911  2.0309  1.4345
15372SOL     OW47535   1.165   2.900   4.311 -0.6511  0.7177 -0.3671
15372SOL    HW147536   1.078   2.925   4.281 -0.9975 -0.5456 -0.4697
15372SOL    HW247537   1.225   2.959   4.265 -1.3671  0.7426 -1.2877
15373SOL     OW47538   7.944   3.941   3.771 -0.4132 -0.3847  0.0890
15373SOL    HW147539   7.897   3.898   3.842 -0.1173  0.7476  1.0007
15373SOL    HW247540   7.965   4.028   3.805  0.1340  0.0236 -1.2227
15374SOL     OW47541   4.032   5.377   7.366 -0.0052 -0.0344 -0.3251
15374SOL    HW147542   4.071   5.420   7.443  0.8732  0.7714 -1.1871
15374SOL    HW247543   3.993   5.449   7.316  0.9957 -0.2896 -1.5159
15375SOL     OW47544   7.388   7.295   6.514 -0.1187  0.0434 -0.4120
15375SOL    HW147545   7.307   7.291   6.464 -0.1909  0.2302 -0.3106
15375SOL    HW247546   7.389   7.384   6.551 -1.2116 -0.8182  1.8603
15376SOL     OW47547   5.836   2.903   6.478 -0.3886  0.0184  0.1051
15376SOL    HW147548   5.756   2.945   6.509 -0.6354  0.7149 -1.4139
15376SOL    HW247549   5.896   2.908   6.553 -1.1827  1.0576  0.6912
15377SOL     OW47550   2.867   1.544   5.548 -0.0376 -0.2450 -0.3454
15377SOL    HW147551   2.843   1.525   5.457 -0.4516  0.7185 -0.4492
15377SOL    HW247552   2.953   1.505   5.558 -0.5616 -1.5684 -0.7321
15378SOL     OW47553   1.227   0.925   1.774 -0.1168  0.1210 -0.2056
15378SOL    HW147554   1.259   1.003   1.819 -0.8680  0.6463 -0.5766
15378SOL    HW247555   1.144   0.905   1.816 -1.0734  0.9043 -1.6552
15379SOL     OW47556   1.283   7.426   3.410 -0.0734 -0.4048 -0.1832
15379SOL    HW147557   1.249   7.347   3.367 -0.8663  0.4102 -1.0893
15379SOL    HW247558   1.376   7.427   3.387 -0.6111  0.4319 -2.6351
15380SOL     OW47559   6.439   1.560   6.628 -0.3241 -0.2126  0.0630
15380SOL    HW147560   6.364   1.504   6.608 -1.0262  1.2048 -1.6003
15380SOL    HW247561   6.509   1.528   6.571  0.0778 -0.9642  0.9582
15381SOL     OW47562   0.586   5.006   2.721 -0.0114 -0.1227 -0.2697
15381SOL    HW147563   0.533   4.946   2.668 -0.6856 -0.6422  0.9435
15381SOL    HW247564   0.651   4.949   2.763  0.3495  0.2438 -0.3221
15382SOL     OW47565   5.836   8.051   5.918 -0.4516 -0.1656  0.3869
15382SOL    HW147566   5.790   8.025   5.838 -0.9370  0.3810  0.4835
15382SOL    HW247567   5.896   8.120   5.891 -0.0268 -0.5440  0.3501
15383SOL     OW47568   6.955   3.032   2.485  0.3860 -0.1366 -0.2226
15383SOL    HW147569   6.941   2.938   2.471 -1.8360  0.2508 -1.0699
15383SOL    HW247570   7.016   3.058   2.416  0.0425 -0.7454 -0.7662
15384SOL     OW47571   1.109   3.861   3.909  0.5457 -0.1964  0.2003
15384SOL    HW147572   1.061   3.829   3.986  0.6964 -0.7717  0.0552
15384SOL    HW247573   1.103   3.957   3.917 -0.7845 -0.2425  0.0794
15385SOL     OW47574   6.693   6.744   4.595  0.0380  0.0894 -0.0782
15385SOL    HW147575   6.629   6.813   4.579  2.1865  2.3693  0.3906
15385SOL    HW247576   6.697   6.695   4.512 -2.2791 -0.1711 -0.0832
15386SOL     OW47577   3.262   6.111   5.523 -0.1329 -0.1457  0.0371
15386SOL    HW147578   3.328   6.177   5.547  0.7631 -0.9897 -0.0475
15386SOL    HW247579   3.181   6.144   5.561  0.3813  0.7865  0.3761
15387SOL     OW47580   7.159   4.349   7.803  0.1294  0.0865 -0.4901
15387SOL    HW147581   7.070   4.382   7.817 -0.0820 -0.2058 -1.1109
15387SOL    HW247582   7.164   4.269   7.855 -0.5823 -0.8778 -1.8227
15388SOL     OW47583   7.734   6.393   4.487  0.1132  0.4796  0.2502
15388SOL    HW147584   7.818   6.433   4.505  0.1363  0.5058  0.0871
15388SOL    HW247585   7.752   6.328   4.419 -0.1662  1.1545 -0.4777
15389SOL     OW47586   1.291   1.157   2.824  0.3472 -0.2875 -0.2728
15389SOL    HW147587   1.316   1.243   2.859  0.9534  0.0046 -1.3835
15389SOL    HW247588   1.210   1.172   2.777  0.8804 -0.1342 -1.1700
15390SOL     OW47589   5.054   3.049   5.345 -0.7649 -0.2753 -0.1226
15390SOL    HW147590   5.066   3.058   5.439  0.5049 -0.3300 -0.2726
15390SOL    HW247591   5.066   3.138   5.311  0.6859 -0.5605 -0.4188
15391SOL     OW47592   2.179   6.634   0.958  0.4824  0.3033  0.5162
15391SOL    HW147593   2.263   6.606   0.921  0.4531 -1.4760  1.6782
15391SOL    HW247594   2.172   6.586   1.040 -1.4595  0.7988  0.6871
15392SOL     OW47595   6.021   0.293   5.634 -0.1916  0.0343  0.3386
15392SOL    HW147596   5.988   0.383   5.632  0.6749  0.3610 -0.8772
15392SOL    HW247597   5.983   0.252   5.556  0.5981 -0.1859  0.0574
15393SOL     OW47598   1.203   7.123   4.905 -0.0812  0.8067  0.1189
15393SOL    HW147599   1.228   7.090   4.991 -0.0319  1.4647  0.3636
15393SOL    HW247600   1.190   7.217   4.918 -0.1965  0.8926 -0.5646
15394SOL     OW47601   4.925   3.873   7.269  0.7012  0.1227  0.5315
15394SOL    HW147602   4.970   3.932   7.329  0.8198  2.8840 -2.0327
15394SOL    HW247603   4.980   3.872   7.191 -1.3281 -0.1875 -0.9720
15395SOL     OW47604   4.507   7.278   3.858 -0.4271 -0.2198 -0.7767
15395SOL    HW147605   4.595   7.255   3.830  0.3605  1.8637 -0.2140
15395SOL    HW247606   4.503   7.251   3.949 -0.0196  0.5368 -0.5290
15396SOL     OW47607   6.104   6.980   4.754  0.0862  0.2478  0.0227
15396SOL    HW147608   6.149   6.909   4.707 -1.5033 -0.5110 -0.4244
15396SOL    HW247609   6.024   6.995   4.703  0.4541  2.5057  0.0139
15397SOL     OW47610   7.611   4.891   5.535 -0.1630 -0.2384  0.0709
15397SOL    HW147611   7.649   4.844   5.460 -0.2756 -1.2864  0.6506
15397SOL    HW247612   7.656   4.975   5.535  0.8039 -0.7313 -0.3819
15398SOL     OW47613   5.348   3.521   1.306  0.0757 -0.3929 -0.3332
15398SOL    HW147614   5.273   3.520   1.365  1.3683 -1.2211  1.3837
15398SOL    HW247615   5.379   3.611   1.307  0.6430 -0.5722  1.0743
15399SOL     OW47616   3.753   4.714   3.154 -0.5062 -0.3211  0.7441
15399SOL    HW147617   3.818   4.712   3.083 -0.2702 -0.9604  0.9763
15399SOL    HW247618   3.784   4.784   3.212  1.1583 -1.9447  1.9397
15400SOL     OW47619   5.923   3.368   4.356 -0.4201 -0.4268 -0.4706
15400SOL    HW147620   5.901   3.461   4.351  0.4362 -0.2631 -1.6435
15400SOL    HW247621   5.950   3.345   4.267 -0.2229 -1.6994 -0.1014
15401SOL     OW47622   4.015   7.403   2.615 -0.7457  0.0698  0.0862
15401SOL    HW147623   3.935   7.370   2.656 -0.2639 -1.0522  0.1870
15401SOL    HW247624   4.077   7.330   2.624 -0.1392  0.4033 -1.2180
15402SOL     OW47625   4.343   4.039   7.848  0.1020  0.1615  0.0149
15402SOL    HW147626   4.348   3.977   7.920 -2.2142  0.7028  0.7100
15402SOL    HW247627   4.303   3.989   7.776  2.2466 -0.3290 -0.9228
15403SOL     OW47628   5.325   7.839   7.730 -0.1240  0.2905  0.2622
15403SOL    HW147629   5.367   7.921   7.755  2.2523 -0.6613 -0.4085
15403SOL    HW247630   5.352   7.825   7.640 -2.5116 -0.0631 -0.4749
15404SOL     OW47631   3.462   0.662   2.754 -0.0509 -0.0633 -0.0214
15404SOL    HW147632   3.402   0.630   2.687  0.2056 -0.4597 -0.0615
15404SOL    HW247633   3.548   0.628   2.728  0.2042  0.5255  0.0161
15405SOL     OW47634   5.681   7.165   1.522 -0.1446  0.6242  0.5011
15405SOL    HW147635   5.637   7.117   1.453  1.6168 -0.6021  0.1638
15405SOL    HW247636   5.740   7.226   1.476  1.7390 -0.8522  0.8179
15406SOL     OW47637   7.152   6.567   7.181 -0.3956  0.4902 -0.2782
15406SOL    HW147638   7.143   6.471   7.179  1.7645  0.0991  2.2899
15406SOL    HW247639   7.187   6.589   7.095  0.1000 -1.2144 -0.5662
15407SOL     OW47640   0.976   5.859   4.071  0.0267  0.2062 -0.1283
15407SOL    HW147641   0.979   5.792   4.003 -0.3445  0.2739 -0.2142
15407SOL    HW247642   1.042   5.831   4.135  0.9809  0.5883 -0.9172
15408SOL     OW47643   1.553   0.154   7.630  0.6371 -0.9989 -0.1881
15408SOL    HW147644   1.542   0.081   7.569  1.4276 -1.3152  0.0259
15408SOL    HW247645   1.644   0.181   7.617  0.7566 -0.9546  0.7200
15409SOL     OW47646   4.400   7.554   7.917 -0.0828  0.0768 -0.7014
15409SOL    HW147647   4.442   7.608   7.984  0.3461  0.2623 -1.1198
15409SOL    HW247648   4.448   7.472   7.919 -0.2492 -0.0185 -0.5923
15410SOL     OW47649   0.026   2.244   1.679  0.4197 -0.2279  0.0002
15410SOL    HW147650   0.033   2.160   1.633  0.9890 -0.0959 -0.1691
15410SOL    HW247651   0.009   2.307   1.609  0.8610 -0.0863  0.0141
15411SOL     OW47652   6.355   7.810   2.604 -0.2359 -0.1942 -0.0863
15411SOL    HW147653   6.316   7.813   2.691 -0.6519 -2.3220 -0.1357
15411SOL    HW247654   6.325   7.890   2.561  0.3926  1.1703  1.8507
15412SOL     OW47655   2.078   0.906   3.062  0.0821  0.5700 -0.3305
15412SOL    HW147656   2.105   0.980   3.116 -3.9974  2.4691 -0.4665
15412SOL    HW247657   2.080   0.940   2.972  0.6893 -0.4316 -0.7181
15413SOL     OW47658   4.460   7.726   7.520  0.2019  0.4379  0.0108
15413SOL    HW147659   4.530   7.762   7.575 -0.4209 -0.1510  1.2328
15413SOL    HW247660   4.426   7.651   7.570 -2.6576  1.8807  0.4654
15414SOL     OW47661   6.924   7.522   5.773 -0.4070  0.1663  0.0310
15414SOL    HW147662   6.971   7.536   5.855  1.1755 -0.4832 -0.7093
15414SOL    HW247663   6.926   7.608   5.730  1.1738 -0.0831 -0.4806
15415SOL     OW47664   3.027   4.421   5.367 -0.0161 -0.5995  0.2458
15415SOL    HW147665   3.101   4.363   5.388  1.0952  0.9670  0.8049
15415SOL    HW247666   2.979   4.430   5.449 -1.0558 -1.8609 -0.1873
15416SOL     OW47667   6.336   5.824   0.895  0.0582 -0.4098  0.4942
15416SOL    HW147668   6.250   5.784   0.904  0.0743 -1.0818 -1.6209
15416SOL    HW247669   6.364   5.799   0.806  3.4803 -2.3291  1.9090
15417SOL     OW47670   3.446   7.212   8.059  0.0819 -0.3892  0.4106
15417SOL    HW147671   3.493   7.130   8.076  0.3452  0.2656  3.4518
15417SOL    HW247672   3.451   7.259   8.142 -0.1434  2.7036 -1.2067
15418SOL     OW47673   4.955   4.717   6.512 -0.6296  0.2269 -0.1488
15418SOL    HW147674   4.955   4.630   6.552 -1.5564 -0.0651 -0.7606
15418SOL    HW247675   5.030   4.715   6.452 -1.0231 -0.3799 -0.6348
15419SOL     OW47676   4.223   5.139   3.457  0.3343  0.2672  0.0129
15419SOL    HW147677   4.288   5.172   3.395  0.5133 -1.2943 -0.6687
15419SOL    HW247678   4.200   5.215   3.510  1.9695  1.0793 -0.3840
15420SOL     OW47679   3.362   0.165   3.643  0.1585  0.2639  0.0903
15420SOL    HW147680   3.320   0.160   3.557  1.3339  0.6797 -0.5305
15420SOL    HW247681   3.321   0.240   3.685 -0.6272 -0.1139  0.0112
15421SOL     OW47682   2.910   2.775   5.277  0.6973  0.3464 -0.3679
15421SOL    HW147683   2.894   2.837   5.206  0.2965  2.1561  1.2319
15421SOL    HW247684   2.913   2.690   5.234 -0.8796  1.2327 -2.3771
15422SOL     OW47685   2.446   6.128   4.173  0.3414  0.2867 -1.0325
15422SOL    HW147686   2.481   6.041   4.152  0.5301 -0.5371  2.1706
15422SOL    HW247687   2.354   6.113   4.193  0.4067  0.7731 -0.3224
15423SOL     OW47688   3.234   7.200   0.685 -0.4329 -0.6946  0.6205
15423SOL    HW147689   3.327   7.199   0.706  0.3382  0.4101 -2.2056
15423SOL    HW247690   3.215   7.110   0.656 -0.3287 -0.9968  1.4792
15424SOL     OW47691   1.190   4.070   0.887  0.1878 -0.2209  0.3507
15424SOL    HW147692   1.182   4.022   0.805 -0.1088  0.5338 -0.0672
15424SOL    HW247693   1.131   4.145   0.878  1.9774  1.2592  0.2424
15425SOL     OW47694   4.810   2.741   5.919 -0.0456  0.0955  0.3252
15425SOL    HW147695   4.809   2.796   5.997 -0.3043  1.2723 -0.4863
15425SOL    HW247696   4.894   2.760   5.877  0.4444 -1.1281  0.7122
15426SOL     OW47697   6.376   0.585   6.639  0.2539  0.0426  0.1978
15426SOL    HW147698   6.326   0.556   6.715  1.6796  0.1983  1.2307
15426SOL    HW247699   6.379   0.509   6.581 -0.6261 -0.1561  0.3964
15427SOL     OW47700   5.440   2.896   1.419 -0.0436  0.4671 -0.0653
15427SOL    HW147701   5.369   2.900   1.354  0.8362 -0.6633 -1.1500
15427SOL    HW247702   5.414   2.824   1.477  0.0072  0.3340 -0.2067
15428SOL     OW47703   5.159   7.445   4.844 -0.2625 -0.1129  0.0902
15428SOL    HW147704   5.064   7.445   4.861 -0.5210  2.9934 -0.7118
15428SOL    HW247705   5.166   7.424   4.751 -0.0700 -1.2394  0.3506
15429SOL     OW47706   6.083   6.533   3.556 -0.3007 -0.2359  0.0922
15429SOL    HW147707   6.067   6.615   3.603 -0.9489 -0.9619  1.1915
15429SOL    HW247708   6.130   6.559   3.477 -1.5307  1.3252 -0.1617
15430SOL     OW47709   0.239   3.730   2.022 -0.0790 -0.6252  0.7991
15430SOL    HW147710   0.313   3.669   2.015 -0.5926 -1.1004 -1.5212
15430SOL    HW247711   0.233   3.770   1.935 -0.2883  2.1903  2.0111
15431SOL     OW47712   0.788   3.469   2.504  0.0065  1.2399  0.2652
15431SOL    HW147713   0.851   3.422   2.450 -0.1485  2.3481 -0.9138
15431SOL    HW247714   0.796   3.427   2.590 -2.2774 -3.0593 -1.2813
15432SOL     OW47715   5.074   5.079   1.698  0.0946  0.1466 -0.8672
15432SOL    HW147716   4.983   5.105   1.686 -0.5256 -2.0922 -1.4789
15432SOL    HW247717   5.075   5.033   1.782  0.5484 -0.2693 -1.0976
15433SOL     OW47718   6.196   4.257   7.305  0.4981 -0.0491 -0.2452
15433SOL    HW147719   6.156   4.340   7.329 -1.1592 -0.4299 -1.5009
15433SOL    HW247720   6.261   4.241   7.373 -0.7021  1.1721  1.2623
15434SOL     OW47721   1.817   5.987   5.883 -0.4082  0.9831  0.2289
15434SOL    HW147722   1.742   5.928   5.884  0.9721 -0.8817  1.8773
15434SOL    HW247723   1.838   6.000   5.975  0.3645  2.7546 -0.1627
15435SOL     OW47724   0.657   6.040   4.640  0.0238  0.4969 -0.0613
15435SOL    HW147725   0.616   5.977   4.581 -1.0488 -1.3123  2.4437
15435SOL    HW247726   0.584   6.085   4.683  0.4854 -1.3091  2.9538
15436SOL     OW47727   7.074   1.487   2.823 -0.4571 -0.3375 -0.2463
15436SOL    HW147728   6.983   1.489   2.793  0.7445 -0.7927 -4.8221
15436SOL    HW247729   7.103   1.397   2.807  0.9046 -0.1106  0.7265
15437SOL     OW47730   6.517   4.919   0.241 -0.3558  0.5626  0.3219
15437SOL    HW147731   6.494   4.930   0.149  1.3439 -0.9404 -0.3509
15437SOL    HW247732   6.536   5.008   0.272 -0.1856  1.0076 -1.0020
15438SOL     OW47733   1.105   5.080   1.532 -0.1097  0.2128  0.1559
15438SOL    HW147734   1.102   4.990   1.498  1.1173 -0.0356  0.6296
15438SOL    HW247735   1.019   5.094   1.572 -0.1230 -0.9832  0.5969
15439SOL     OW47736   0.099   2.360   4.653 -0.4631  0.3965  0.0157
15439SOL    HW147737   0.156   2.409   4.712  1.5356  0.6143 -1.9311
15439SOL    HW247738   0.018   2.411   4.650 -0.2364  0.9112  1.7192
15440SOL     OW47739   1.227   1.789   1.734  0.3469  0.5299  0.3055
15440SOL    HW147740   1.225   1.847   1.811  0.2629  2.3778 -1.0180
15440SOL    HW247741   1.190   1.842   1.664  0.6036 -1.0482 -1.0703
15441SOL     OW47742   4.080   6.934   4.402  0.3991 -0.2216  0.0359
15441SOL    HW147743   4.169   6.943   4.369 -0.3142 -1.8163 -2.6618
15441SOL    HW247744   4.031   7.003   4.357 -0.0523 -0.4547  0.1685
15442SOL     OW47745   5.250   4.589   2.062  0.0460  0.1162  0.4868
15442SOL    HW147746   5.320   4.615   2.121 -1.6433  0.4392  2.4379
15442SOL    HW247747   5.274   4.500   2.035  0.3941 -0.4585  2.5029
15443SOL     OW47748   3.141   6.558   5.361  0.0087 -0.0271  0.4113
15443SOL    HW147749   3.175   6.576   5.448 -1.7811 -0.3393  1.2196
15443SOL    HW247750   3.081   6.484   5.373 -0.4346  0.0564 -1.0497
15444SOL     OW47751   6.277   7.494   0.825  0.1623  0.2342 -0.5564
15444SOL    HW147752   6.232   7.410   0.815  1.4821 -0.4585 -0.7679
15444SOL    HW247753   6.363   7.472   0.858  0.3322  1.5629 -0.0552
15445SOL     OW47754   6.507   2.653   0.439 -0.1754 -0.1213  0.5444
15445SOL    HW147755   6.576   2.599   0.477 -0.6425 -0.7487  0.5224
15445SOL    HW247756   6.544   2.683   0.355 -0.6929 -2.2459 -0.5289
15446SOL     OW47757   0.554   6.275   7.008 -0.3438  0.2286  0.2234
15446SOL    HW147758   0.633   6.246   7.054  0.7457  0.2467 -1.5551
15446SOL    HW247759   0.579   6.356   6.966 -1.6495  0.7780  0.4525
15447SOL     OW47760   7.777   6.691   1.741 -0.2691  0.2637  0.2425
15447SOL    HW147761   7.819   6.696   1.655 -1.9119  0.0479 -0.6012
15447SOL    HW247762   7.718   6.616   1.735 -0.2011  0.0749  1.6697
15448SOL     OW47763   6.209   3.007   1.038 -0.0827  0.1962 -0.0128
15448SOL    HW147764   6.200   2.959   1.120 -0.1068  0.4191  0.1166
15448SOL    HW247765   6.302   3.033   1.035  0.0400 -0.2609 -0.3103
15449SOL     OW47766   6.001   0.703   1.931 -0.5038 -0.4047  0.0587
15449SOL    HW147767   6.088   0.669   1.910 -0.6773 -0.3293 -0.7985
15449SOL    HW247768   6.012   0.743   2.018  0.7407  1.1141 -0.7452
15450SOL     OW47769   4.914   1.511   1.168  0.3274 -0.0742 -0.0888
15450SOL    HW147770   4.901   1.461   1.087 -0.9508  0.4290 -0.2124
15450SOL    HW247771   4.858   1.468   1.232 -0.3224  0.8243 -0.0397
15451SOL     OW47772   2.049   6.132   0.356  0.5270 -0.8682 -0.1228
15451SOL    HW147773   2.053   6.095   0.443 -0.6357 -2.5163 -0.7259
15451SOL    HW247774   2.062   6.226   0.369  2.0868 -1.2711  1.5996
15452SOL     OW47775   7.940   1.422   6.145  0.6472  0.3363 -0.0103
15452SOL    HW147776   7.878   1.428   6.072  0.5118  0.6425  0.1314
15452SOL    HW247777   7.978   1.509   6.152 -1.3308  1.1295  2.0455
15453SOL     OW47778   2.378   5.227   5.140 -0.8312 -0.1382  0.2712
15453SOL    HW147779   2.290   5.212   5.175 -2.2852 -0.3499 -3.0250
15453SOL    HW247780   2.420   5.141   5.143 -0.1597  0.2064  3.0219
15454SOL     OW47781   2.816   7.555   2.039 -0.3851 -0.1391  0.4887
15454SOL    HW147782   2.833   7.493   2.110 -0.0048 -0.4411  0.1367
15454SOL    HW247783   2.780   7.502   1.968 -1.6074  0.3010  0.7610
15455SOL     OW47784   6.806   5.787   4.627  0.6815  0.0904 -0.1528
15455SOL    HW147785   6.796   5.719   4.560  1.5333 -0.5179  0.3019
15455SOL    HW247786   6.897   5.815   4.618  0.3830  1.0619 -0.2183
15456SOL     OW47787   2.033   7.515   2.532  0.0554 -0.3389 -0.6273
15456SOL    HW147788   2.060   7.424   2.519 -2.1502 -0.9140 -1.4802
15456SOL    HW247789   1.960   7.510   2.594  0.6266  0.9899  0.2093
15457SOL     OW47790   1.418   7.767   3.986  0.7773 -0.3320 -0.5270
15457SOL    HW147791   1.453   7.732   4.068  1.5053 -0.1030 -0.7377
15457SOL    HW247792   1.488   7.823   3.952  0.2186  0.1124 -0.9647
15458SOL     OW47793   5.210   4.258   6.027 -0.2299  0.2965 -0.3271
15458SOL    HW147794   5.232   4.173   5.987 -1.3286 -0.1298 -0.0733
15458SOL    HW247795   5.120   4.247   6.059 -0.0142  1.2217  0.6629
15459SOL     OW47796   1.826   4.931   0.663 -0.0434 -0.2232 -0.0720
15459SOL    HW147797   1.856   5.021   0.656  0.2786 -0.2335  1.0325
15459SOL    HW247798   1.907   4.879   0.669 -0.2164 -0.6224 -1.0087
15460SOL     OW47799   4.493   0.177   3.032  0.1262 -0.3422 -0.1961
15460SOL    HW147800   4.461   0.088   3.018  0.7951 -0.5965 -0.1487
15460SOL    HW247801   4.467   0.224   2.953  0.5104 -0.7993 -0.6020
15461SOL     OW47802   0.187   1.968   4.583  0.6737  0.1472 -0.2813
15461SOL    HW147803   0.135   1.926   4.652  0.9054 -1.1876 -0.8874
15461SOL    HW247804   0.167   1.918   4.504  1.6967  0.5961 -0.8411
15462SOL     OW47805   4.976   3.460   0.653 -0.1227  0.1364  0.0804
15462SOL    HW147806   5.071   3.465   0.641 -0.2984  1.0870 -1.0256
15462SOL    HW247807   4.965   3.440   0.746  1.1551  0.8887  0.4210
15463SOL     OW47808   1.334   7.069   2.766  0.3920  0.0304 -0.5756
15463SOL    HW147809   1.400   7.010   2.801 -0.6494 -1.1847 -0.5950
15463SOL    HW247810   1.384   7.139   2.725  1.6534  0.1052  0.9821
15464SOL     OW47811   7.458   6.502   0.592 -0.1240  0.0420  0.1676
15464SOL    HW147812   7.470   6.485   0.499 -0.9625 -0.0327  0.0688
15464SOL    HW247813   7.395   6.436   0.621  0.7916 -0.5006  0.9873
15465SOL     OW47814   3.340   3.778   4.961 -0.2075  0.2753 -0.1638
15465SOL    HW147815   3.277   3.715   4.998 -0.6949  0.8097 -0.0797
15465SOL    HW247816   3.334   3.764   4.866 -0.1472  0.0365 -0.1336
15466SOL     OW47817   5.957   3.159   3.328  0.2349 -0.0003 -0.1298
15466SOL    HW147818   5.909   3.238   3.355 -0.8634 -0.8354  0.4258
15466SOL    HW247819   5.968   3.170   3.234 -0.8311  0.3490 -0.2350
15467SOL     OW47820   2.507   3.493   6.297  0.0144  0.1327  0.6110
15467SOL    HW147821   2.479   3.440   6.372  0.6318 -0.3816  0.4888
15467SOL    HW247822   2.439   3.479   6.231  0.4143 -0.9152  0.3992
15468SOL     OW47823   3.249   0.193   5.710  0.0467  0.3269 -0.4020
15468SOL    HW147824   3.342   0.174   5.695 -0.3929 -1.3071 -1.2733
15468SOL    HW247825   3.205   0.161   5.631 -1.5242 -1.2758  1.0398
15469SOL     OW47826   0.649   5.823   0.538 -0.3648  0.1089 -0.3964
15469SOL    HW147827   0.634   5.733   0.510  1.3394  0.2066 -1.7591
15469SOL    HW247828   0.621   5.876   0.463  2.5549  0.4732 -1.3262
15470SOL     OW47829   0.666   0.677   4.136  0.1870 -0.2008  0.0377
15470SOL    HW147830   0.748   0.659   4.182  0.9295  2.6151  0.0464
15470SOL    HW247831   0.605   0.704   4.204 -0.0323 -0.0946 -0.1970
15471SOL     OW47832   0.656   2.236   3.829  0.1684 -0.8600 -0.3417
15471SOL    HW147833   0.606   2.289   3.892 -1.8675 -1.7359 -1.1523
15471SOL    HW247834   0.636   2.274   3.744  1.1714 -1.0409 -0.6709
15472SOL     OW47835   1.981   6.463   3.793 -0.1210 -0.8769 -0.0782
15472SOL    HW147836   2.014   6.412   3.719  1.2431  0.7092 -0.6230
15472SOL    HW247837   1.918   6.523   3.753  1.7051  1.0146 -0.2970
15473SOL     OW47838   1.644   4.008   3.407  0.4498  0.1839  0.3241
15473SOL    HW147839   1.653   3.999   3.502  1.5334 -2.1487  0.0835
15473SOL    HW247840   1.711   4.072   3.383  0.4507  0.4799  1.0879
15474SOL     OW47841   6.704   5.201   5.706 -0.3158 -0.1401 -0.1084
15474SOL    HW147842   6.723   5.249   5.625  1.0460  0.2928  0.4364
15474SOL    HW247843   6.730   5.111   5.687 -0.6611 -0.1842 -0.3780
15475SOL     OW47844   5.500   1.901   2.761  0.7308  0.1272  0.4060
15475SOL    HW147845   5.427   1.958   2.784  0.0636 -0.6405  0.2360
15475SOL    HW247846   5.554   1.954   2.702 -0.7523  0.0508 -1.0895
15476SOL     OW47847   2.212   1.245   0.223 -0.5601 -0.1047  0.0537
15476SOL    HW147848   2.186   1.216   0.136  0.0481 -1.0361  0.1626
15476SOL    HW247849   2.181   1.176   0.282  3.0092 -1.9211  0.0732
15477SOL     OW47850   2.336   2.095   0.461 -0.1583  0.7921  0.6255
15477SOL    HW147851   2.320   2.049   0.544 -0.3446 -0.3578 -0.0324
15477SOL    HW247852   2.267   2.064   0.403  1.7106 -0.7992 -0.8915
15478SOL     OW47853   2.356   5.313   7.233 -0.2778 -0.4348  0.1156
15478SOL    HW147854   2.284   5.370   7.207  0.4483  0.9557  1.0432
15478SOL    HW247855   2.411   5.305   7.155 -0.9104 -0.7069 -0.3109
15479SOL     OW47856   6.805   4.962   2.485 -0.4901 -0.0075 -0.0736
15479SOL    HW147857   6.721   4.915   2.479 -0.7517  0.5331 -0.8242
15479SOL    HW247858   6.833   4.949   2.576 -1.7252  0.3699  0.3842
15480SOL     OW47859   3.834   2.964   4.291 -0.6278  0.1888 -0.7167
15480SOL    HW147860   3.802   2.981   4.379  2.0911 -1.4665  0.7237
15480SOL    HW247861   3.784   2.888   4.262 -2.2296  1.3331 -1.0693
15481SOL     OW47862   2.468   1.147   5.368  0.6983 -0.1050  0.5022
15481SOL    HW147863   2.413   1.069   5.363  0.3094  0.1177  1.1176
15481SOL    HW247864   2.447   1.197   5.289  2.4317 -1.5464 -0.9532
15482SOL     OW47865   5.610   2.709   2.044 -0.0175 -0.5232 -0.2995
15482SOL    HW147866   5.627   2.625   2.087 -2.3162 -0.6859  0.3991
15482SOL    HW247867   5.552   2.755   2.104  3.5275  2.9781  0.8737
15483SOL     OW47868   1.619   4.035   2.886 -0.6867 -0.0357  0.0750
15483SOL    HW147869   1.680   4.044   2.959  0.3631 -0.3631 -0.7313
15483SOL    HW247870   1.650   3.958   2.838 -2.9852 -1.4937  0.7752
15484SOL     OW47871   7.015   1.521   1.186 -0.0868  0.1970  0.1406
15484SOL    HW147872   7.039   1.473   1.266  1.0834 -0.3914 -0.5462
15484SOL    HW247873   7.085   1.586   1.175  0.6814 -0.8336 -1.3055
15485SOL     OW47874   6.864   0.930   4.267  0.3435 -0.0900  0.0166
15485SOL    HW147875   6.858   1.020   4.300  0.6561 -0.3631  0.8532
15485SOL    HW247876   6.830   0.935   4.178  0.8380  0.9589 -0.1335
15486SOL     OW47877   0.496   0.790   4.749  0.0257 -0.2254 -0.6950
15486SOL    HW147878   0.443   0.811   4.672 -2.7718 -2.3996  0.4623
15486SOL    HW247879   0.486   0.866   4.806 -0.6505  0.0334 -1.1410
15487SOL     OW47880   2.519   6.270   4.605 -0.5360  0.1655 -0.6959
15487SOL    HW147881   2.564   6.236   4.528 -0.0731 -0.4211 -0.1836
15487SOL    HW247882   2.590   6.290   4.667 -0.8926  0.7349 -0.4687
15488SOL     OW47883   5.340   2.190   3.297  0.3137 -0.2674 -0.4300
15488SOL    HW147884   5.313   2.104   3.328 -0.0313  0.3713  1.1420
15488SOL    HW247885   5.386   2.229   3.370 -0.3268  1.2327 -0.7817
15489SOL     OW47886   1.691   1.637   4.871  0.0231  0.1580 -0.0218
15489SOL    HW147887   1.678   1.690   4.792  0.5171 -0.8245 -0.7930
15489SOL    HW247888   1.611   1.648   4.921 -1.5410 -1.4122 -2.0016
15490SOL     OW47889   3.717   6.615   1.712  0.5498 -0.8091 -1.3312
15490SOL    HW147890   3.739   6.678   1.780 -0.0399 -1.4045 -0.5673
15490SOL    HW247891   3.654   6.660   1.656  0.5057 -0.5512 -1.0750
15491SOL     OW47892   7.733   3.744   2.017  0.0582  0.2667  0.0069
15491SOL    HW147893   7.767   3.833   2.010  0.5315  0.2227  1.4847
15491SOL    HW247894   7.639   3.754   2.003  0.2457  0.8301 -0.9418
15492SOL     OW47895   7.781   7.441   0.563 -0.2915 -0.0251  0.0183
15492SOL    HW147896   7.826   7.438   0.479  1.0842  0.1042  0.7337
15492SOL    HW247897   7.809   7.362   0.609 -1.9241 -0.7014 -0.0496
15493SOL     OW47898   3.161   3.767   3.744 -0.7106  0.1394 -0.4040
15493SOL    HW147899   3.179   3.694   3.804 -0.9454 -0.8221 -1.4756
15493SOL    HW247900   3.073   3.795   3.767 -1.2843 -1.0296 -1.0849
15494SOL     OW47901   8.012   6.482   7.313 -0.2753  0.0154  0.2714
15494SOL    HW147902   8.046   6.444   7.233 -1.6214  0.5183 -0.5724
15494SOL    HW247903   8.087   6.482   7.373  0.7024 -0.5610 -0.8982
15495SOL     OW47904   3.691   0.537   5.021 -0.1661  0.6182 -0.4746
15495SOL    HW147905   3.645   0.470   4.971  1.8193 -0.9325 -0.3370
15495SOL    HW247906   3.642   0.617   5.005 -2.7237 -0.8606 -0.5344
15496SOL     OW47907   4.647   1.037   1.938  0.1797  0.1611  0.0989
15496SOL    HW147908   4.626   0.959   1.989 -2.2513  1.7229  1.7023
15496SOL    HW247909   4.657   1.107   2.003  1.3693  1.4067 -1.3342
15497SOL     OW47910   2.177   3.253   7.861  0.0606  0.5467  0.0201
15497SOL    HW147911   2.184   3.190   7.789  3.3608  1.3461 -0.5392
15497SOL    HW247912   2.202   3.203   7.939  0.6782  0.6471 -0.1052
15498SOL     OW47913   5.201   1.633   5.473  0.6459  0.6513 -0.4529
15498SOL    HW147914   5.111   1.650   5.501  0.4777 -0.2521 -0.3932
15498SOL    HW247915   5.198   1.543   5.438  1.8807 -0.0618  1.1611
15499SOL     OW47916   2.575   2.503   0.815  0.2009  0.3866 -0.2068
15499SOL    HW147917   2.519   2.427   0.827 -0.3751  0.5106 -1.8493
15499SOL    HW247918   2.637   2.477   0.746  1.2886  0.7357  0.6065
15500SOL     OW47919   6.365   5.313   0.345 -0.2841  0.2811 -0.7438
15500SOL    HW147920   6.390   5.376   0.278  1.3971  0.6147  0.1505
15500SOL    HW247921   6.437   5.314   0.408 -0.8147 -1.5778 -0.0253
15501SOL     OW47922   7.880   7.393   6.387 -0.2382  0.5765 -0.6535
15501SOL    HW147923   7.929   7.332   6.332 -0.6362 -1.7640  1.3776
15501SOL    HW247924   7.789   7.365   6.380 -0.5917  1.6457 -0.4928
15502SOL     OW47925   1.189   3.599   6.007 -0.0250  0.1059 -0.2100
15502SOL    HW147926   1.281   3.581   5.990 -0.3851 -0.6173 -1.5056
15502SOL    HW247927   1.171   3.554   6.089  0.7870  0.3321  0.1043
15503SOL     OW47928   7.432   7.077   4.079  0.1655 -0.5319  0.6850
15503SOL    HW147929   7.472   7.058   4.164  2.7737  0.5574 -0.2103
15503SOL    HW247930   7.445   6.998   4.028 -0.3638 -0.7654  0.8970
15504SOL     OW47931   6.656   7.474   1.307 -0.3818 -0.4347 -0.3390
15504SOL    HW147932   6.595   7.521   1.365 -1.9134 -0.1432 -2.0991
15504SOL    HW247933   6.649   7.382   1.334 -1.6296 -0.4038 -0.5170
15505SOL     OW47934   7.994   0.100   6.367  0.3634 -0.4520  0.6849
15505SOL    HW147935   8.054   0.101   6.441 -0.1062  0.3488  1.0757
15505SOL    HW247936   8.029   0.034   6.307  2.3036  0.8344  0.3307
15506SOL     OW47937   5.041   3.744   4.140 -0.4120 -0.3912  0.0534
15506SOL    HW147938   5.025   3.669   4.083 -1.3224 -0.6766  0.6683
15506SOL    HW247939   5.107   3.796   4.093 -1.0085 -0.7015 -1.1703
15507SOL     OW47940   4.812   1.997   2.233 -0.0879  0.2683  0.0650
15507SOL    HW147941   4.901   1.973   2.208 -0.5524 -0.2990 -1.1646
15507SOL    HW247942   4.812   2.092   2.233  0.2311  0.2886 -1.1381
15508SOL     OW47943   6.028   4.728   5.601 -0.1043  0.1174  1.1626
15508SOL    HW147944   5.939   4.694   5.593 -0.4309  0.7739  1.7657
15508SOL    HW247945   6.032   4.761   5.691  0.3879  1.0738  0.8024
15509SOL     OW47946   0.242   5.479   3.618  0.3784  0.2704 -0.4245
15509SOL    HW147947   0.227   5.429   3.538 -0.7074 -0.2613  0.0769
15509SOL    HW247948   0.190   5.558   3.607 -4.2689 -2.0733  1.7812
15510SOL     OW47949   5.088   0.543   7.217 -0.1872  0.2938 -0.0464
15510SOL    HW147950   4.998   0.512   7.212 -0.4755  0.9550  0.7358
15510SOL    HW247951   5.109   0.541   7.310  0.9986 -0.9045 -0.3102
15511SOL     OW47952   5.375   7.190   7.424  0.3526 -0.1755 -0.0202
15511SOL    HW147953   5.292   7.144   7.410  0.8521 -1.1630  0.2462
15511SOL    HW247954   5.349   7.274   7.463 -0.6334  0.2091 -1.4211
15512SOL     OW47955   3.566   3.875   3.091 -0.2786  0.3241 -0.0191
15512SOL    HW147956   3.508   3.932   3.040  2.3502  0.6716 -2.9781
15512SOL    HW247957   3.631   3.934   3.128  0.5785 -0.3897 -0.3370
15513SOL     OW47958   4.625   6.153   2.995 -0.1797 -0.1417 -0.6455
15513SOL    HW147959   4.682   6.197   3.057 -1.7114  0.3418  0.4886
15513SOL    HW247960   4.660   6.175   2.909  0.3903  1.4459 -0.0334
15514SOL     OW47961   7.780   3.144   2.720 -0.4329 -0.0845 -0.2831
15514SOL    HW147962   7.861   3.093   2.729 -0.4563 -0.3082 -1.3161
15514SOL    HW247963   7.710   3.079   2.721 -0.9274  0.2321  3.5852
15515SOL     OW47964   1.894   0.199   2.398 -0.4711  0.1830 -0.3538
15515SOL    HW147965   1.948   0.247   2.335  1.1640 -1.1784 -0.0721
15515SOL    HW247966   1.864   0.122   2.350 -1.8375  0.7022 -0.3700
15516SOL     OW47967   7.276   6.083   5.775 -0.4779 -0.4858  0.1117
15516SOL    HW147968   7.251   6.038   5.856 -0.0727  0.2382  0.6554
15516SOL    HW247969   7.213   6.154   5.766 -0.2306 -0.2693  0.0598
15517SOL     OW47970   7.620   5.273   3.509  0.0039 -0.6789 -0.3756
15517SOL    HW147971   7.555   5.225   3.561  0.2685 -2.4160 -1.5322
15517SOL    HW247972   7.701   5.266   3.560 -0.0493 -1.1668 -0.3457
15518SOL     OW47973   6.264   6.581   1.691  0.5897  0.1114 -0.2242
15518SOL    HW147974   6.172   6.606   1.686 -0.2429 -2.5608  0.2104
15518SOL    HW247975   6.304   6.649   1.745 -1.5900  0.2044  1.4229
15519SOL     OW47976   0.325   4.686   1.762 -0.1041  0.2231 -1.0605
15519SOL    HW147977   0.270   4.759   1.735 -2.8056 -1.3289 -0.1261
15519SOL    HW247978   0.276   4.608   1.738  0.6293 -1.2567  1.7314
15520SOL     OW47979   6.791   2.344   3.565 -0.5084 -0.3615  0.2480
15520SOL    HW147980   6.798   2.265   3.619 -0.9655 -1.4898 -1.2688
15520SOL    HW247981   6.828   2.318   3.481  1.5288  1.7695  0.3825
15521SOL     OW47982   7.730   2.301   4.032  0.0985 -0.0384 -0.3764
15521SOL    HW147983   7.710   2.376   4.088  1.8893  0.9583 -0.9884
15521SOL    HW247984   7.764   2.340   3.951  1.2749 -1.5148 -0.6371
15522SOL     OW47985   1.131   7.102   1.284  0.0252 -0.6455 -0.4645
15522SOL    HW147986   1.147   7.137   1.197 -0.6921 -2.3576 -1.3406
15522SOL    HW247987   1.215   7.065   1.311  0.3031  0.0814 -0.3336
15523SOL     OW47988   1.027   4.596   6.039 -0.0038  0.4770 -0.3948
15523SOL    HW147989   1.076   4.601   6.120  0.4733  1.3810 -0.7262
15523SOL    HW247990   1.058   4.516   5.996  1.0642  0.9408 -0.5161
15524SOL     OW47991   7.245   3.709   7.184  0.3680  0.3156  0.0753
15524SOL    HW147992   7.319   3.675   7.134  1.1251  4.2041 -1.8303
15524SOL    HW247993   7.207   3.777   7.128 -1.6896  1.7422  2.9387
15525SOL     OW47994   6.983   3.780   1.007  0.7154  0.1975 -0.2417
15525SOL    HW147995   6.888   3.786   1.013  0.8232  1.3785  0.9291
15525SOL    HW247996   7.003   3.795   0.915 -0.1105  2.7505 -0.0886
15526SOL     OW47997   7.675   0.947   0.096  0.0319 -0.3976  0.3607
15526SOL    HW147998   7.752   0.903   0.134 -0.3047  0.1256  1.7102
15526SOL    HW247999   7.673   1.032   0.139 -0.6162  0.0639 -0.5637
15527SOL     OW48000   7.475   5.040   5.745  0.0381 -0.2600 -0.0184
15527SOL    HW148001   7.506   5.113   5.692  2.7106 -1.3439 -0.0843
15527SOL    HW248002   7.435   4.979   5.682 -0.3273  0.1915 -0.2280
15528SOL     OW48003   2.120   3.265   6.354 -0.3319  0.3720 -0.8200
15528SOL    HW148004   2.193   3.327   6.355 -1.0316  1.2745 -2.3435
15528SOL    HW248005   2.080   3.277   6.268 -1.4870 -1.0417 -0.5108
15529SOL     OW48006   4.763   5.458   7.976  0.1503 -0.1926  0.8648
15529SOL    HW148007   4.816   5.395   7.928  0.2487  0.5226  0.0140
15529SOL    HW248008   4.813   5.540   7.974 -1.0270  0.5466 -0.1103
15530SOL     OW48009   7.567   7.002   4.339  0.6707  0.1862 -0.5261
15530SOL    HW148010   7.640   6.940   4.342 -0.1069 -0.7545 -0.7436
15530SOL    HW248011   7.601   7.081   4.383  1.0780 -1.0048  1.4129
15531SOL     OW48012   6.418   5.587   6.460 -0.0978  0.6897  0.2246
15531SOL    HW148013   6.479   5.528   6.503  0.6463  1.3780  0.1515
15531SOL    HW248014   6.338   5.536   6.449  1.1597 -1.0413 -1.7467
15532SOL     OW48015   3.399   3.946   2.256 -0.6607  0.0851 -0.0240
15532SOL    HW148016   3.353   3.925   2.175  2.2672  0.5929 -1.9925
15532SOL    HW248017   3.412   4.041   2.252 -1.3668  0.2832  1.6135
15533SOL     OW48018   0.573   1.536   3.186 -0.1053  0.4468  0.1290
15533SOL    HW148019   0.495   1.588   3.204 -0.7006 -0.6777  0.9825
15533SOL    HW248020   0.569   1.518   3.092 -1.9612 -1.1765  0.4491
15534SOL     OW48021   0.546   7.936   0.642  0.4225 -0.2949 -0.5840
15534SOL    HW148022   0.526   8.013   0.589 -0.2901 -0.4927 -0.6116
15534SOL    HW248023   0.580   7.972   0.725  0.7856  0.0260 -0.8703
15535SOL     OW48024   2.974   2.979   3.872  0.2803  0.2535 -0.0244
15535SOL    HW148025   3.024   2.901   3.892 -0.3543 -0.4382 -1.0208
15535SOL    HW248026   2.891   2.967   3.918 -1.4382 -1.6417 -3.2591
15536SOL     OW48027   3.571   6.205   0.268 -0.3680  0.5459  0.3626
15536SOL    HW148028   3.546   6.174   0.355 -2.2036 -0.9041 -0.6262
15536SOL    HW248029   3.596   6.126   0.220  0.1376  1.2676 -0.6052
15537SOL     OW48030   0.148   7.314   4.572 -0.0115 -1.3249  0.5478
15537SOL    HW148031   0.140   7.388   4.512  1.9145 -0.8548  0.8218
15537SOL    HW248032   0.178   7.241   4.517 -1.5695 -1.8669  0.3455
15538SOL     OW48033   7.830   8.058   5.624  0.1464  0.2996 -0.2956
15538SOL    HW148034   7.830   8.151   5.646  0.3838 -0.0494  1.3397
15538SOL    HW248035   7.894   8.049   5.553  4.2150  0.7088  2.9594
15539SOL     OW48036   6.191   4.504   1.058  0.5371 -0.5011  0.0775
15539SOL    HW148037   6.239   4.492   1.140  1.3128  1.9126  0.0299
15539SOL    HW248038   6.253   4.477   0.990  0.6994 -0.3560  0.1690
15540SOL     OW48039   5.050   5.048   2.884 -0.1872 -0.4335  0.2076
15540SOL    HW148040   5.145   5.043   2.876 -0.1719 -0.9905  0.6826
15540SOL    HW248041   5.029   5.138   2.859  0.2897 -0.7829 -1.5933
15541SOL     OW48042   2.025   7.824   0.254  0.1429  0.0412  0.6228
15541SOL    HW148043   1.942   7.854   0.216  1.2815  1.1921 -1.1063
15541SOL    HW248044   2.070   7.780   0.181  0.0945 -2.7177  2.1493
15542SOL     OW48045   2.960   2.411   2.279 -0.1048 -0.2112  0.5179
15542SOL    HW148046   3.035   2.414   2.218 -1.4059 -0.3195 -1.1665
15542SOL    HW248047   2.926   2.322   2.271 -0.6197 -0.0635  1.0009
15543SOL     OW48048   3.556   1.358   4.006 -0.4736  0.0408 -0.5588
15543SOL    HW148049   3.647   1.367   3.976  0.0488  3.3320  1.5312
15543SOL    HW248050   3.559   1.288   4.071  0.7233  0.5895 -0.0036
15544SOL     OW48051   7.131   3.647   6.104  0.5827 -0.1473 -0.1632
15544SOL    HW148052   7.095   3.564   6.072  0.2565  0.2070 -0.7373
15544SOL    HW248053   7.226   3.634   6.104  0.6188 -0.0618 -1.5883
15545SOL     OW48054   7.458   6.551   7.932  0.3275  0.0329  0.1744
15545SOL    HW148055   7.385   6.490   7.938  0.3624 -0.0858 -0.5375
15545SOL    HW248056   7.526   6.503   7.884  0.8583  0.1565  0.7817
15546SOL     OW48057   4.470   0.572   1.320 -0.0551  0.4370  0.4413
15546SOL    HW148058   4.430   0.559   1.234  0.6321  1.8678 -0.1171
15546SOL    HW248059   4.425   0.509   1.376  1.2445 -2.4130 -1.4575
15547SOL     OW48060   0.122   3.995   7.831 -0.0870 -0.1314 -0.2931
15547SOL    HW148061   0.071   4.061   7.879  3.2670  4.7968 -2.7361
15547SOL    HW248062   0.097   4.007   7.740 -0.4922 -3.6120 -0.7667
15548SOL     OW48063   7.462   4.545   1.449 -0.0345  0.1461  0.0579
15548SOL    HW148064   7.444   4.618   1.508 -2.2792 -0.0415 -0.3243
15548SOL    HW248065   7.409   4.563   1.371  2.0245 -0.1643 -1.5053
15549SOL     OW48066   1.431   0.602   2.982 -0.0475  0.5096  0.1212
15549SOL    HW148067   1.344   0.640   2.965  0.1559  0.2269 -1.7446
15549SOL    HW248068   1.488   0.645   2.918  0.8264 -0.5813  0.1455
15550SOL     OW48069   2.878   1.050   7.531 -0.3965 -0.6351  0.0102
15550SOL    HW148070   2.864   1.135   7.489  2.4211 -0.1955 -0.2344
15550SOL    HW248071   2.900   1.071   7.622  0.7778 -1.0045 -0.1593
15551SOL     OW48072   1.101   2.291   5.513  0.1320 -0.2748  0.5475
15551SOL    HW148073   1.169   2.268   5.450  0.8522  0.4940  1.0322
15551SOL    HW248074   1.019   2.260   5.473  0.8558 -2.0678  0.3760
15552SOL     OW48075   4.441   2.521   4.189  0.4156  0.1084 -0.4436
15552SOL    HW148076   4.356   2.538   4.229  0.9774  1.9875  0.0766
15552SOL    HW248077   4.427   2.444   4.134 -1.5225  0.1759 -0.1179
15553SOL     OW48078   4.466   2.840   7.262 -0.8000 -0.5152 -0.3746
15553SOL    HW148079   4.533   2.873   7.202  0.1840  0.4954  1.2181
15553SOL    HW248080   4.397   2.906   7.259 -0.3146  0.0314  0.3211
15554SOL     OW48081   0.186   5.667   1.757  0.3890 -0.1612 -0.4026
15554SOL    HW148082   0.238   5.723   1.815 -0.9294  1.1683 -0.4469
15554SOL    HW248083   0.138   5.728   1.702 -0.1607 -1.3782 -1.3169
15555SOL     OW48084   5.309   1.574   3.054  0.8443 -0.2003  0.1179
15555SOL    HW148085   5.351   1.524   2.984  0.0427 -2.2586  1.0356
15555SOL    HW248086   5.216   1.574   3.032  0.7136  0.0347  0.6407
15556SOL     OW48087   6.851   2.012   1.482 -0.2991 -0.5225 -0.0775
15556SOL    HW148088   6.890   1.933   1.445 -1.2975 -0.7559 -0.6511
15556SOL    HW248089   6.796   1.982   1.554  1.2449 -0.1113  1.3352
15557SOL     OW48090   3.656   5.660   5.872  0.2795 -0.4205  0.1073
15557SOL    HW148091   3.641   5.657   5.777 -1.9295  1.9529  0.2589
15557SOL    HW248092   3.727   5.723   5.883  1.3467 -1.5681  0.0318
15558SOL     OW48093   6.330   6.219   4.149  0.4573  0.7775  0.3049
15558SOL    HW148094   6.346   6.209   4.243  2.1832 -0.0263 -0.0421
15558SOL    HW248095   6.278   6.299   4.141 -2.1626 -0.5748  2.1584
15559SOL     OW48096   7.110   4.123   4.929 -0.0416  0.6639 -0.0284
15559SOL    HW148097   7.175   4.193   4.931  0.7166 -0.0211 -0.2235
15559SOL    HW248098   7.104   4.093   5.020  0.9844 -0.2219 -0.2343
15560SOL     OW48099   6.482   1.198   2.970  0.1403  0.7399 -0.0929
15560SOL    HW148100   6.503   1.235   3.055  0.4672 -1.4094  0.8390
15560SOL    HW248101   6.473   1.104   2.986  0.3292  0.2397 -2.4571
15561SOL     OW48102   3.562   6.066   5.320 -0.4940  0.4719 -0.1599
15561SOL    HW148103   3.631   6.132   5.327 -0.6185  0.4828  1.2248
15561SOL    HW248104   3.490   6.112   5.276 -0.4645  1.1783  0.5055
15562SOL     OW48105   4.459   2.846   2.751 -0.2174 -0.0914 -0.5890
15562SOL    HW148106   4.552   2.863   2.739 -0.6239  0.7061 -3.3740
15562SOL    HW248107   4.434   2.900   2.826  1.6094 -0.7087  0.5251
15563SOL     OW48108   3.802   2.074   2.877 -0.1552 -0.6335 -0.0432
15563SOL    HW148109   3.734   2.042   2.936 -0.9038  0.5602 -0.2288
15563SOL    HW248110   3.884   2.045   2.917 -0.6634 -0.1246  1.4314
15564SOL     OW48111   0.410   4.975   6.855 -0.3613  0.3443 -0.0762
15564SOL    HW148112   0.475   4.941   6.794 -1.0947 -1.1151 -0.0999
15564SOL    HW248113   0.458   5.036   6.911  0.5631  0.8421 -1.3762
15565SOL     OW48114   3.372   2.188   1.795  0.0746  0.6256  0.6688
15565SOL    HW148115   3.453   2.146   1.765  0.2904  0.4543  1.4768
15565SOL    HW248116   3.367   2.167   1.888 -1.3790 -0.1182  0.4393
15566SOL     OW48117   0.560   4.671   5.438  0.8314  0.0676 -0.3541
15566SOL    HW148118   0.559   4.766   5.438  1.0682  0.1026 -2.1361
15566SOL    HW248119   0.651   4.648   5.461  0.8185  0.2646 -0.1031
15567SOL     OW48120   5.897   5.762   5.986 -0.5226  0.1177 -0.0451
15567SOL    HW148121   5.959   5.789   5.918  1.2912  0.1873  1.5363
15567SOL    HW248122   5.815   5.805   5.962  0.5233  1.5807 -1.2272
15568SOL     OW48123   0.122   3.043   7.198 -0.2173  0.2006 -0.3933
15568SOL    HW148124   0.194   2.985   7.173 -0.0747  0.4954 -0.6695
15568SOL    HW248125   0.149   3.081   7.282  1.3518  2.6262 -1.8778
15569SOL     OW48126   6.301   7.642   3.759  0.1872  0.1951 -0.4165
15569SOL    HW148127   6.245   7.657   3.684  0.4015 -0.0817 -0.6344
15569SOL    HW248128   6.296   7.548   3.775 -0.6800  0.3893  0.5672
15570SOL     OW48129   0.591   2.465   7.156 -0.2980  0.0117 -0.0740
15570SOL    HW148130   0.654   2.534   7.136 -1.3537  1.0766  0.1380
15570SOL    HW248131   0.641   2.400   7.205  0.8773  0.3003 -0.8494
15571SOL     OW48132   3.405   7.611   5.314  0.5654 -0.3351 -0.8279
15571SOL    HW148133   3.415   7.650   5.401 -0.3902 -1.7322 -0.0434
15571SOL    HW248134   3.486   7.634   5.268  0.1490  2.3138 -0.3696
15572SOL     OW48135   2.195   2.194   7.268 -0.0650 -0.0049  0.2312
15572SOL    HW148136   2.277   2.217   7.311 -0.6880 -1.4485  2.3446
15572SOL    HW248137   2.150   2.278   7.257  1.3382  0.7057 -0.2415
15573SOL     OW48138   5.821   4.139   4.095 -0.1398  0.3605  0.5620
15573SOL    HW148139   5.842   4.073   4.160 -0.2790 -0.3746 -0.1128
15573SOL    HW248140   5.900   4.146   4.041 -0.3925  0.1567  0.1553
15574SOL     OW48141   2.116   1.485   7.252 -0.4668 -0.0142 -0.4048
15574SOL    HW148142   2.119   1.544   7.177 -0.0910  0.3866 -0.0824
15574SOL    HW248143   2.157   1.405   7.221 -0.4717  0.0905 -0.6833
15575SOL     OW48144   5.189   2.150   7.166  0.1447  0.2196 -0.5826
15575SOL    HW148145   5.119   2.092   7.136 -2.0241  2.3129  0.0728
15575SOL    HW248146   5.188   2.223   7.103  2.8034 -0.3682 -1.4051
15576SOL     OW48147   2.692   5.301   1.600  0.3088  0.0545 -0.3195
15576SOL    HW148148   2.712   5.215   1.563 -0.8169 -0.3942  0.0719
15576SOL    HW248149   2.698   5.361   1.526 -1.6321 -0.7848 -1.2352
15577SOL     OW48150   1.766   3.735   3.614  0.6783  0.3827 -0.1068
15577SOL    HW148151   1.744   3.734   3.521  2.5368  0.1988 -0.5834
15577SOL    HW248152   1.792   3.645   3.633 -0.1820  0.2966  0.7455
15578SOL     OW48153   1.764   0.906   7.263  0.3785  0.8013 -0.1686
15578SOL    HW148154   1.857   0.911   7.240  0.8921 -0.9665  1.2350
15578SOL    HW248155   1.721   0.877   7.183  1.5562 -1.4800 -0.0772
15579SOL     OW48156   3.161   1.260   4.383 -0.1707  0.0615  0.2093
15579SOL    HW148157   3.206   1.203   4.445 -1.3324 -0.1478  0.8731
15579SOL    HW248158   3.215   1.255   4.303  2.1797  1.4871  1.5818
15580SOL     OW48159   4.557   2.584   7.389 -0.1748  0.2069 -0.7314
15580SOL    HW148160   4.652   2.575   7.399 -0.4225 -0.1815  2.5348
15580SOL    HW248161   4.546   2.666   7.341  1.8323  1.0474  0.1031
15581SOL     OW48162   1.235   4.366   4.607  0.1535 -0.3990 -0.1762
15581SOL    HW148163   1.184   4.342   4.530 -1.9862  0.6149  0.8228
15581SOL    HW248164   1.243   4.461   4.602  0.7904 -0.4150  0.3845
15582SOL     OW48165   5.663   5.207   6.295 -0.0101  0.1907  0.0262
15582SOL    HW148166   5.698   5.158   6.220 -0.1979 -0.8506  0.5989
15582SOL    HW248167   5.568   5.199   6.287 -0.0230 -0.7828  0.8995
15583SOL     OW48168   6.789   2.096   5.664  0.0693  0.3201  0.3297
15583SOL    HW148169   6.831   2.180   5.682  1.6818 -0.5857  1.0210
15583SOL    HW248170   6.801   2.045   5.744 -2.0386 -0.1569  0.4062
15584SOL     OW48171   0.837   7.969   0.389 -0.1066 -0.1338  0.4743
15584SOL    HW148172   0.826   7.941   0.298  0.9399  0.2434  0.2140
15584SOL    HW248173   0.804   7.895   0.441  0.1927 -0.7678 -0.2103
15585SOL     OW48174   4.073   7.957   3.253  0.5998 -0.5833 -0.4015
15585SOL    HW148175   4.088   7.987   3.342 -0.8594 -1.1193  0.0483
15585SOL    HW248176   3.998   7.899   3.259  0.8220 -1.0810 -1.9011
15586SOL     OW48177   2.398   3.525   7.110 -0.5200  0.3283  0.6545
15586SOL    HW148178   2.470   3.547   7.169 -0.9500 -0.8310  1.6568
15586SOL    HW248179   2.324   3.578   7.141 -0.4025  0.6784  0.3388
15587SOL     OW48180   0.338   1.384   2.168  0.4670  0.0915 -0.2084
15587SOL    HW148181   0.416   1.362   2.220  0.8201  0.7001 -0.4798
15587SOL    HW248182   0.289   1.445   2.224  0.9190  0.8608 -0.6409
15588SOL     OW48183   2.667   0.573   5.218  0.3231 -0.6404 -0.6756
15588SOL    HW148184   2.751   0.528   5.211  0.8413  0.1904  0.0595
15588SOL    HW248185   2.625   0.534   5.294  0.3371 -0.5737 -0.6341
15589SOL     OW48186   8.020   3.006   2.951  0.1447  0.1555 -0.1066
15589SOL    HW148187   8.043   3.097   2.968  0.2926 -0.0845  1.0300
15589SOL    HW248188   8.078   2.980   2.880  0.4702  0.7892 -0.0863
15590SOL     OW48189   8.002   6.749   7.389 -0.5118 -0.1378  0.2686
15590SOL    HW148190   7.998   6.655   7.369 -1.2053 -0.7927  3.0190
15590SOL    HW248191   8.073   6.757   7.453 -1.3352  0.9658  1.0859
15591SOL     OW48192   4.945   2.076   1.824  0.2834 -0.6246 -0.4463
15591SOL    HW148193   4.915   2.151   1.773  1.4491  0.3059  0.1713
15591SOL    HW248194   4.951   2.109   1.914  1.7252 -1.1483 -0.3221
15592SOL     OW48195   7.851   7.181   5.199 -0.0929  0.2829 -0.2621
15592SOL    HW148196   7.867   7.131   5.279 -1.5179 -0.2405 -0.2867
15592SOL    HW248197   7.840   7.271   5.230 -0.4912  0.1067  0.1230
15593SOL     OW48198   4.972   1.354   1.814  0.0935  0.0709  0.2734
15593SOL    HW148199   4.991   1.262   1.831  0.0650  0.2471  1.3292
15593SOL    HW248200   4.878   1.363   1.835 -0.3503 -0.0350 -1.5352
15594SOL     OW48201   6.575   6.285   1.598 -0.3444  0.6620  0.6990
15594SOL    HW148202   6.575   6.348   1.526 -1.2986  1.0773  1.0530
15594SOL    HW248203   6.483   6.274   1.622 -0.3564 -1.7760 -0.1215
15595SOL     OW48204   0.170   7.448   0.475  0.7061  0.2049 -0.3851
15595SOL    HW148205   0.252   7.435   0.427  0.5248  1.3144 -1.0397
15595SOL    HW248206   0.197   7.478   0.562  1.0366 -1.7382  0.2341
15596SOL     OW48207   0.979   3.693   2.028  0.5734  0.0831 -0.4737
15596SOL    HW148208   0.998   3.638   1.951  3.7067 -0.4872  0.5662
15596SOL    HW248209   1.041   3.663   2.095 -0.4136  2.1732  1.5012
15597SOL     OW48210   5.426   6.375   7.230  0.9389  0.0972  0.3237
15597SOL    HW148211   5.357   6.405   7.171  0.7680 -0.2344  0.3511
15597SOL    HW248212   5.427   6.438   7.302 -0.3452 -0.7151  1.0817
15598SOL     OW48213   6.346   7.925   3.470 -0.1309 -0.5430  0.7799
15598SOL    HW148214   6.265   7.873   3.474 -0.4756 -0.3661 -1.8517
15598SOL    HW248215   6.411   7.865   3.432 -0.3965  0.6600 -1.8044
15599SOL     OW48216   3.814   7.056   4.278  0.3698 -0.7555  0.2288
15599SOL    HW148217   3.721   7.057   4.300  0.3934 -1.7338  0.4230
15599SOL    HW248218   3.827   7.134   4.223 -0.3905 -0.1745  0.8634
15600SOL     OW48219   0.957   3.801   5.937 -0.0535  0.4292  0.1289
15600SOL    HW148220   1.006   3.724   5.968 -1.7120 -0.4408  0.6798
15600SOL    HW248221   1.012   3.875   5.962  1.9236 -0.5639 -1.0046
15601SOL     OW48222   4.616   6.203   3.478 -0.3039  0.2014  0.2307
15601SOL    HW148223   4.655   6.283   3.441  2.5141 -0.6580  1.1197
15601SOL    HW248224   4.634   6.209   3.571 -4.2124  0.6464  1.1399
15602SOL     OW48225   0.820   1.180   2.054 -0.0349 -0.2476 -0.2445
15602SOL    HW148226   0.818   1.096   2.099 -0.9011 -1.0062 -1.6144
15602SOL    HW248227   0.848   1.243   2.120 -0.9122 -1.3582  1.2316
15603SOL     OW48228   6.029   6.929   1.504  0.3522  0.4729 -0.2186
15603SOL    HW148229   6.075   7.009   1.477  0.0015  0.4284 -0.9978
15603SOL    HW248230   5.952   6.961   1.551  0.4990  0.5828 -0.0558
15604SOL     OW48231   1.325   1.366   3.337 -0.1216 -0.0597 -0.2628
15604SOL    HW148232   1.332   1.461   3.350 -0.9334  0.2196 -1.5955
15604SOL    HW248233   1.412   1.332   3.358  0.8697  1.2752 -1.9075
15605SOL     OW48234   2.628   0.438   3.363  0.0938 -0.2980  0.2054
15605SOL    HW148235   2.714   0.415   3.399  0.0154 -0.2318  0.4386
15605SOL    HW248236   2.567   0.422   3.435 -0.0451  0.0089  0.1572
15606SOL     OW48237   7.244   6.630   5.927 -0.1735  0.4821  0.5033
15606SOL    HW148238   7.272   6.721   5.931 -1.6403  1.1213 -1.7157
15606SOL    HW248239   7.212   6.619   5.838 -0.2121 -2.1836  0.7595
15607SOL     OW48240   0.492   0.083   5.441  0.0106  0.0761 -0.5951
15607SOL    HW148241   0.413   0.137   5.444 -0.4966 -0.6840  0.3753
15607SOL    HW248242   0.460  -0.006   5.430  0.6221 -0.4211  1.2221
15608SOL     OW48243   2.659   4.000   1.987 -0.5868 -0.1021 -0.4914
15608SOL    HW148244   2.644   3.929   2.049 -1.7658 -0.3448 -1.0217
15608SOL    HW248245   2.676   4.077   2.042  0.5219 -0.7375  0.0830
15609SOL     OW48246   3.567   4.093   7.084 -0.0292  0.5905  0.3492
15609SOL    HW148247   3.509   4.106   7.009  1.2029 -0.3241 -0.8116
15609SOL    HW248248   3.597   4.002   7.076  2.3452  1.3091  0.2968
15610SOL     OW48249   0.304   4.414   5.356 -0.3136 -0.2820  0.2130
15610SOL    HW148250   0.250   4.448   5.284 -1.3697 -1.1937  0.5393
15610SOL    HW248251   0.277   4.323   5.365  0.0185 -0.2696  1.5626
15611SOL     OW48252   5.848   4.035   6.739 -0.2767 -0.6709  0.3979
15611SOL    HW148253   5.914   3.966   6.728  1.1830  0.3048  2.4059
15611SOL    HW248254   5.786   3.999   6.802 -1.0515 -1.1235 -0.5859
15612SOL     OW48255   0.133   7.387   1.850 -0.2770 -0.0425  0.1675
15612SOL    HW148256   0.160   7.417   1.763 -0.0515 -1.3400 -0.2347
15612SOL    HW248257   0.215   7.369   1.895 -0.3899  0.8090  0.7340
15613SOL     OW48258   5.533   7.491   0.347  0.2420 -0.4387  0.7607
15613SOL    HW148259   5.545   7.412   0.295  2.4574 -0.3282  0.9856
15613SOL    HW248260   5.614   7.498   0.399 -0.6307  1.0412  2.0238
15614SOL     OW48261   2.497   6.626   5.890  0.0976  0.2725 -0.2107
15614SOL    HW148262   2.454   6.593   5.811 -0.3057 -0.7252  0.3972
15614SOL    HW248263   2.570   6.566   5.904  0.1157  0.3911  0.2176
15615SOL     OW48264   3.436   6.871   3.346  0.2192 -0.1029 -0.4971
15615SOL    HW148265   3.528   6.865   3.323 -0.4938 -1.0162 -3.6593
15615SOL    HW248266   3.422   6.801   3.410  2.1509  1.8502  2.3150
15616SOL     OW48267   5.340   3.239   3.549 -0.0767  0.4410 -0.0436
15616SOL    HW148268   5.317   3.151   3.579 -0.1140  0.1851 -0.7913
15616SOL    HW248269   5.427   3.254   3.585 -1.1026  1.1695  2.2841
15617SOL     OW48270   0.101   2.966   0.004  0.3821 -0.2380 -0.5985
15617SOL    HW148271   0.143   2.959   0.090 -0.1445 -1.1923 -0.4042
15617SOL    HW248272   0.024   2.909   0.010  0.5105 -0.5643 -1.8155
15618SOL     OW48273   0.650   4.986   1.796  0.2378  0.1671 -0.4559
15618SOL    HW148274   0.590   5.053   1.762  0.2664  0.7384  0.5752
15618SOL    HW248275   0.623   4.974   1.887  0.6616 -0.7577 -0.4402
15619SOL     OW48276   4.052   6.224   7.655 -0.0285 -0.3223  0.4033
15619SOL    HW148277   4.041   6.131   7.674 -1.1564 -0.2524  0.1851
15619SOL    HW248278   4.048   6.267   7.741 -2.0329 -0.2794  0.3436
15620SOL     OW48279   1.521   1.190   5.855  0.1823 -0.3744 -0.2361
15620SOL    HW148280   1.449   1.126   5.851 -0.1575 -0.0227  0.1685
15620SOL    HW248281   1.499   1.255   5.789 -0.7990  0.6725  1.0784
15621SOL     OW48282   4.440   3.472   8.016  0.5385  0.1024  0.0484
15621SOL    HW148283   4.502   3.511   8.077  1.3147  1.5733 -1.5918
15621SOL    HW248284   4.447   3.378   8.032  3.0992  0.2340  0.0651
15622SOL     OW48285   4.041   4.204   0.372 -0.0477  0.4559 -0.2390
15622SOL    HW148286   4.014   4.171   0.286 -0.8048  1.2363 -0.3085
15622SOL    HW248287   4.136   4.212   0.365 -0.1855  1.4624 -1.3647
15623SOL     OW48288   2.146   3.865   5.742  0.3570  0.1122 -0.1775
15623SOL    HW148289   2.156   3.874   5.648  1.4016 -2.8074 -0.4374
15623SOL    HW248290   2.233   3.881   5.778  0.3125 -0.3019  0.1261
15624SOL     OW48291   4.696   5.594   2.292  0.0638 -0.0870 -0.0080
15624SOL    HW148292   4.663   5.667   2.239 -0.7409  1.1120  2.0454
15624SOL    HW248293   4.617   5.551   2.325  0.5142 -2.1856 -1.4436
15625SOL     OW48294   6.475   1.599   0.291 -0.7070  0.2957  1.1966
15625SOL    HW148295   6.553   1.553   0.320  0.1640  2.1569  1.9690
15625SOL    HW248296   6.450   1.655   0.365 -2.4476  0.1672  0.7660
15626SOL     OW48297   1.390   1.537   5.830  0.4269 -0.2832 -0.5872
15626SOL    HW148298   1.455   1.480   5.789 -0.1522 -1.1221 -0.3732
15626SOL    HW248299   1.374   1.606   5.766  1.8845  0.2225 -0.4436
15627SOL     OW48300   1.648   7.110   2.551  0.4804  0.0241 -0.0059
15627SOL    HW148301   1.574   7.118   2.491  0.6820  0.4107 -0.2101
15627SOL    HW248302   1.658   7.016   2.565 -1.3247  0.0128  1.6343
15628SOL     OW48303   2.901   0.953   5.227  1.0744  0.2322  0.0590
15628SOL    HW148304   2.920   0.895   5.152  0.7497  1.1353 -0.7452
15628SOL    HW248305   2.806   0.963   5.226  1.1911  1.4209 -0.3164
15629SOL     OW48306   5.150   0.773   8.041  0.3321 -0.2852 -0.6784
15629SOL    HW148307   5.113   0.851   8.083  0.0221 -0.3643 -0.8060
15629SOL    HW248308   5.098   0.701   8.076  0.9552 -0.4878 -0.1641
15630SOL     OW48309   4.496   3.367   6.086 -0.1919  0.1481  0.7181
15630SOL    HW148310   4.557   3.310   6.039  0.8901  0.7926  1.3014
15630SOL    HW248311   4.416   3.365   6.033  0.0883 -1.2660  0.3099
15631SOL     OW48312   3.268   0.661   0.313 -0.1256  0.4151  0.5814
15631SOL    HW148313   3.344   0.621   0.355 -0.1120  0.9852  1.1048
15631SOL    HW248314   3.261   0.617   0.228 -0.0821 -0.6560  1.1241
15632SOL     OW48315   5.164   3.800   6.096  0.6011 -0.0988 -0.1529
15632SOL    HW148316   5.141   3.788   6.188  0.2423 -0.0559 -0.2351
15632SOL    HW248317   5.127   3.886   6.073  1.0859  0.0944 -0.2107
15633SOL     OW48318   2.962   6.654   6.020 -0.3859 -0.4887 -0.1505
15633SOL    HW148319   3.015   6.582   6.054 -0.9899 -0.8442  0.0478
15633SOL    HW248320   2.877   6.615   6.001 -0.5244  0.0368 -0.6463
15634SOL     OW48321   7.369   2.556   0.499 -0.2124  0.2902 -0.1559
15634SOL    HW148322   7.404   2.583   0.415  0.5029 -2.8117 -0.9740
15634SOL    HW248323   7.430   2.591   0.564 -0.1926  1.7917 -0.9389
15635SOL     OW48324   2.299   0.625   5.578  0.3550 -0.8096  0.2278
15635SOL    HW148325   2.263   0.687   5.514  1.5501  0.9767  1.2199
15635SOL    HW248326   2.240   0.550   5.573 -2.4963  1.2432  0.5227
15636SOL     OW48327   0.782   5.630   2.254  0.6115  0.2488  0.1889
15636SOL    HW148328   0.865   5.676   2.271  1.4076 -1.9540  3.1171
15636SOL    HW248329   0.805   5.537   2.258 -1.7486 -0.4499 -0.6872
15637SOL     OW48330   7.571   0.161   7.410  0.8855 -0.6178  0.4538
15637SOL    HW148331   7.654   0.159   7.361  0.9124  1.8347  0.2828
15637SOL    HW248332   7.583   0.233   7.472 -1.8847  1.3466 -1.0865
15638SOL     OW48333   6.542   5.861   5.129 -0.1679 -0.2495  0.1571
15638SOL    HW148334   6.539   5.948   5.168  0.1677 -0.8878  1.6969
15638SOL    HW248335   6.633   5.832   5.139 -0.3016 -0.8274 -0.2109
15639SOL     OW48336   5.534   3.098   7.956  0.3094 -0.3062 -0.1800
15639SOL    HW148337   5.618   3.116   7.997  0.7161 -1.8619 -0.2517
15639SOL    HW248338   5.556   3.063   7.870 -0.4949  1.2796 -1.0872
15640SOL     OW48339   5.140   1.484   2.440  0.1010  0.8612  0.9195
15640SOL    HW148340   5.195   1.561   2.456  0.2446  0.8371  0.5492
15640SOL    HW248341   5.058   1.503   2.485 -0.4324  1.8898 -0.4436
15641SOL     OW48342   1.195   2.084   3.433 -0.0721  0.6776 -0.2586
15641SOL    HW148343   1.142   2.072   3.354  0.9221 -0.7391 -0.7488
15641SOL    HW248344   1.174   2.009   3.488  0.1498  1.0112  0.2868
15642SOL     OW48345   5.298   0.296   4.374 -0.4573  0.1530 -0.0991
15642SOL    HW148346   5.388   0.280   4.344 -0.6074 -1.6335  0.3189
15642SOL    HW248347   5.290   0.244   4.454 -1.7081  0.7253  0.1634
15643SOL     OW48348   0.128   1.102   4.247 -0.9595  0.1864 -0.3162
15643SOL    HW148349   0.127   1.138   4.158 -2.6570 -0.5657 -0.6412
15643SOL    HW248350   0.076   1.022   4.241  0.3511 -0.8202  0.9985
15644SOL     OW48351   2.722   5.713   3.174 -0.3689 -0.5734 -0.5168
15644SOL    HW148352   2.660   5.780   3.201 -0.0808 -1.0738  1.5318
15644SOL    HW248353   2.791   5.715   3.240  0.5834 -1.6703 -1.4153
15645SOL     OW48354   5.129   2.813   2.405 -0.4515  0.1993 -0.5635
15645SOL    HW148355   5.179   2.774   2.333 -1.5691 -0.9256 -0.7569
15645SOL    HW248356   5.196   2.854   2.460  0.7560 -1.6492 -0.5524
15646SOL     OW48357   7.508   3.516   4.394  0.0475  0.5472 -0.1253
15646SOL    HW148358   7.511   3.609   4.415  0.7239  0.5763 -0.3206
15646SOL    HW248359   7.488   3.473   4.477  1.0072  0.7821  0.2363
15647SOL     OW48360   4.983   2.050   4.715  0.3983  0.2028  0.3262
15647SOL    HW148361   4.971   2.057   4.620  0.2108 -2.1001  0.1124
15647SOL    HW248362   4.909   2.096   4.753  0.1798  0.6853 -0.6603
15648SOL     OW48363   0.473   3.666   1.686 -0.6072 -0.1572  0.1568
15648SOL    HW148364   0.477   3.570   1.682 -0.6024 -0.1384 -0.5412
15648SOL    HW248365   0.548   3.695   1.634 -0.0190  0.2338  1.2024
15649SOL     OW48366   2.209   7.970   4.596  0.0529  0.0701 -0.3838
15649SOL    HW148367   2.188   7.883   4.563 -0.9761  0.5177 -0.9238
15649SOL    HW248368   2.130   7.998   4.642 -0.7293  1.8853 -2.6689
15650SOL     OW48369   0.110   5.987   3.822  0.1504  0.2684  0.0247
15650SOL    HW148370   0.017   6.002   3.803  0.2759  2.7656  1.0284
15650SOL    HW248371   0.115   5.987   3.918  1.0535 -1.0345  0.0061
15651SOL     OW48372   8.022   7.064   4.715 -0.1702 -0.2327 -0.0163
15651SOL    HW148373   8.087   6.994   4.711 -0.0895 -0.1750  0.2721
15651SOL    HW248374   8.047   7.116   4.791  0.2252  0.5542 -0.6590
15652SOL     OW48375   5.365   5.145   7.409  0.3078 -0.8927 -0.3937
15652SOL    HW148376   5.412   5.220   7.446 -1.6122  0.6356 -0.8941
15652SOL    HW248377   5.423   5.070   7.425  1.2774  0.2922  2.2134
15653SOL     OW48378   5.719   4.388   6.630  0.2552 -0.3041  0.0564
15653SOL    HW148379   5.634   4.421   6.600  0.6883  1.4267  0.6329
15653SOL    HW248380   5.757   4.347   6.552 -0.9316 -0.7827 -0.3021
15654SOL     OW48381   5.741   7.969   1.206  0.3921  0.4687  0.4197
15654SOL    HW148382   5.736   7.908   1.134 -0.1029  1.2491 -0.2198
15654SOL    HW248383   5.835   7.976   1.225  0.4189 -0.9788  0.9600
15655SOL     OW48384   1.916   6.881   0.546 -0.5963 -0.1681  0.0063
15655SOL    HW148385   1.969   6.836   0.612  0.7637  1.9102  0.4288
15655SOL    HW248386   1.868   6.811   0.502  1.1982 -1.9861  0.7725
15656SOL     OW48387   2.059   3.397   5.645  0.0411  0.5720 -0.3219
15656SOL    HW148388   2.139   3.408   5.696  0.1998  1.9826 -0.8188
15656SOL    HW248389   2.078   3.438   5.561 -0.5687 -0.7887 -1.1625
15657SOL     OW48390   0.251   6.985   4.490 -0.2512 -0.5328  0.0149
15657SOL    HW148391   0.301   7.009   4.568  0.1335 -2.1267  0.2938
15657SOL    HW248392   0.256   6.890   4.486 -1.2893 -0.5723 -1.2915
15658SOL     OW48393   5.740   0.929   3.094 -0.5571 -0.2709 -0.4623
15658SOL    HW148394   5.672   0.988   3.060  0.8615  1.4207 -0.4675
15658SOL    HW248395   5.723   0.926   3.189 -0.6282  0.1374 -0.4616
15659SOL     OW48396   1.599   6.168   7.245  0.0625 -0.1418  0.0356
15659SOL    HW148397   1.668   6.160   7.179 -0.7172 -2.0131 -0.6093
15659SOL    HW248398   1.555   6.083   7.244 -0.1558 -0.1604  2.7766
15660SOL     OW48399   6.660   4.221   3.839 -0.5875 -0.2034  0.5725
15660SOL    HW148400   6.595   4.156   3.865 -0.7485 -0.0237  0.6212
15660SOL    HW248401   6.730   4.170   3.798 -1.0317 -0.3476 -0.0164
15661SOL     OW48402   5.810   3.962   1.110  0.7137  0.6640  0.1434
15661SOL    HW148403   5.825   4.043   1.158  0.1063  1.2921 -0.7082
15661SOL    HW248404   5.715   3.955   1.103  0.7865  0.8143 -1.3181
15662SOL     OW48405   1.045   3.147   0.844  0.4222 -0.3618  0.3994
15662SOL    HW148406   0.982   3.218   0.827  0.4743  0.0040  1.6667
15662SOL    HW248407   0.992   3.068   0.844  0.4929 -0.4650 -1.9233
15663SOL     OW48408   6.222   5.825   6.589  0.4136 -0.1079  0.3352
15663SOL    HW148409   6.306   5.827   6.543 -0.5095 -1.3728 -1.5501
15663SOL    HW248410   6.220   5.739   6.631 -0.1823 -0.3497 -0.1677
15664SOL     OW48411   2.137   2.460   1.078  0.5759  0.2561 -0.3877
15664SOL    HW148412   2.176   2.544   1.057  0.4009  1.3883  3.2015
15664SOL    HW248413   2.042   2.476   1.079  0.5448  0.0539  0.4205
15665SOL     OW48414   1.044   1.379   4.380 -0.2569  0.2762 -0.0021
15665SOL    HW148415   0.974   1.444   4.384 -0.2541  0.3083 -0.3887
15665SOL    HW248416   1.060   1.367   4.286 -0.4811 -0.5162  0.0502
15666SOL     OW48417   2.500   4.709   1.184  0.2573 -0.2709 -0.3952
15666SOL    HW148418   2.431   4.771   1.204  0.6921 -0.1334  0.7686
15666SOL    HW248419   2.465   4.624   1.212  0.8986 -0.0667  1.1434
15667SOL     OW48420   0.858   2.520   1.880 -0.1309  0.0163 -0.4049
15667SOL    HW148421   0.950   2.538   1.897 -0.4051 -0.4970  1.8893
15667SOL    HW248422   0.814   2.605   1.892 -0.0510  0.1574 -1.0311
15668SOL     OW48423   5.348   7.735   1.880 -0.1714  0.1704 -0.2844
15668SOL    HW148424   5.318   7.647   1.858  1.0059 -0.4811  0.5693
15668SOL    HW248425   5.270   7.779   1.915 -0.8529 -0.4106 -1.0475
15669SOL     OW48426   2.631   5.452   3.094  0.2463  0.5377 -0.4739
15669SOL    HW148427   2.629   5.546   3.080 -0.2437  0.5028 -0.6895
15669SOL    HW248428   2.562   5.418   3.037 -0.2774  0.1538  0.3543
15670SOL     OW48429   5.234   3.340   6.218 -0.5879  0.1377  0.0587
15670SOL    HW148430   5.152   3.296   6.243 -0.7655 -0.1215 -0.9679
15670SOL    HW248431   5.205   3.419   6.172 -0.2746  1.3851  1.8890
15671SOL     OW48432   4.566   3.141   2.443 -0.3329  0.5932  0.4473
15671SOL    HW148433   4.654   3.107   2.427 -0.3128  1.1001 -0.5529
15671SOL    HW248434   4.554   3.131   2.537 -0.5307 -2.7277  0.2008
15672SOL     OW48435   1.265   4.935   1.188  0.0176  0.2435 -0.0526
15672SOL    HW148436   1.295   4.880   1.260 -1.7120  2.3272  2.4147
15672SOL    HW248437   1.345   4.973   1.152  0.8565  0.6633  2.1099
15673SOL     OW48438   0.251   6.972   7.057 -0.0898 -0.4880  0.0513
15673SOL    HW148439   0.198   7.050   7.072 -0.1655 -0.6605  0.7428
15673SOL    HW248440   0.272   6.974   6.964  0.4939  0.7256  0.1884
15674SOL     OW48441   3.114   1.980   7.449 -0.5861  0.3119  0.3287
15674SOL    HW148442   3.186   1.986   7.386 -1.0744  1.4609 -0.1477
15674SOL    HW248443   3.087   1.889   7.445 -0.8921  0.4340 -1.4845
15675SOL     OW48444   0.391   3.376   2.008  1.0420  0.0141  0.0372
15675SOL    HW148445   0.377   3.361   1.914 -1.1466  1.9170 -0.0308
15675SOL    HW248446   0.421   3.467   2.013 -1.3174  0.7983  1.2776
15676SOL     OW48447   1.865   7.783   4.459 -0.8609 -0.2505  0.0108
15676SOL    HW148448   1.788   7.736   4.492 -1.4269  1.0168  0.5396
15676SOL    HW248449   1.841   7.875   4.464  0.2996  0.1211 -0.8423
15677SOL     OW48450   4.450   3.901   2.236 -0.0922  0.9343  0.7408
15677SOL    HW148451   4.358   3.924   2.250 -0.1841  0.6093  0.6807
15677SOL    HW248452   4.497   3.984   2.244 -0.3060  0.9862  1.5325
15678SOL     OW48453   6.408   0.040   7.991  0.3121  0.2528  0.4251
15678SOL    HW148454   6.399  -0.055   7.994  0.6249  0.2226  0.3787
15678SOL    HW248455   6.493   0.058   8.031  0.6703  0.4397 -0.3881
15679SOL     OW48456   7.559   3.476   2.571  0.1250 -0.1690 -0.1897
15679SOL    HW148457   7.498   3.470   2.645 -2.6850  2.0000 -2.1230
15679SOL    HW248458   7.622   3.543   2.597  1.1339 -1.6608  1.4115
15680SOL     OW48459   0.708   1.563   5.232 -0.2041 -0.6844 -0.0683
15680SOL    HW148460   0.654   1.506   5.177 -0.5973  0.4003 -0.8465
15680SOL    HW248461   0.645   1.616   5.281  0.1278 -1.8252  1.7011
15681SOL     OW48462   7.828   6.337   0.918  0.7151 -0.7178  0.5618
15681SOL    HW148463   7.743   6.377   0.938 -0.0162 -1.3570 -1.0980
15681SOL    HW248464   7.858   6.301   1.002 -0.8663 -0.8623  1.0984
15682SOL     OW48465   1.814   6.103   2.761  0.0340 -0.9633 -0.7677
15682SOL    HW148466   1.862   6.154   2.825 -1.8178  0.7305 -0.6477
15682SOL    HW248467   1.877   6.086   2.691  1.2734 -0.3840  0.1869
15683SOL     OW48468   6.777   1.369   5.119 -0.0532  0.0552  0.7883
15683SOL    HW148469   6.858   1.347   5.164 -1.2053 -0.4937  2.6897
15683SOL    HW248470   6.710   1.315   5.160 -1.4810  0.8266 -0.4035
15684SOL     OW48471   4.659   3.972   7.674  0.1808 -0.2047  0.2393
15684SOL    HW148472   4.648   3.993   7.767 -0.6832 -1.0205  0.3424
15684SOL    HW248473   4.619   3.886   7.664 -0.9596  0.4510 -1.1680
15685SOL     OW48474   2.971   5.981   4.686 -0.7825 -0.7513  0.0978
15685SOL    HW148475   2.892   5.932   4.665 -1.6329  1.1844 -1.6440
15685SOL    HW248476   3.011   5.998   4.601 -1.0778  2.3138  0.4529
15686SOL     OW48477   3.344   7.945   1.426 -0.8137 -0.3242  0.1667
15686SOL    HW148478   3.359   7.861   1.383  0.2193  0.0174 -0.1723
15686SOL    HW248479   3.396   7.942   1.506 -0.5624  0.0765  0.0270
15687SOL     OW48480   4.516   6.263   4.932  0.2903 -0.6656  0.3801
15687SOL    HW148481   4.605   6.285   4.903 -0.2523  1.4576  0.1653
15687SOL    HW248482   4.459   6.310   4.871 -0.9353  3.4231  4.1662
15688SOL     OW48483   2.453   1.031   2.749 -0.5507  0.6621 -0.5409
15688SOL    HW148484   2.534   1.009   2.703  1.2184 -0.0675  2.6636
15688SOL    HW248485   2.415   0.947   2.773  0.2972  0.9266  2.0075
15689SOL     OW48486   4.362   4.610   0.960 -0.3208  0.0484  0.1153
15689SOL    HW148487   4.430   4.647   0.903 -0.6326  1.5700  0.6789
15689SOL    HW248488   4.401   4.612   1.048  0.3581 -2.7597 -0.0160
15690SOL     OW48489   3.503   3.136   7.645 -0.1681 -0.5157  0.2569
15690SOL    HW148490   3.501   3.041   7.638  0.9098 -0.4408 -2.0652
15690SOL    HW248491   3.593   3.156   7.671 -0.4281 -0.1212  0.8696
15691SOL     OW48492   0.160   1.918   0.307  0.2023  0.4757 -0.0101
15691SOL    HW148493   0.180   1.942   0.398  0.4912 -1.0370  0.3488
15691SOL    HW248494   0.076   1.962   0.289  0.0121  0.5844  1.0747
15692SOL     OW48495   7.025   5.150   0.769  0.0343 -0.2434 -0.5775
15692SOL    HW148496   6.969   5.092   0.821  1.2598 -1.0659 -0.1180
15692SOL    HW248497   7.104   5.162   0.822  0.9447 -0.3750 -1.8404
15693SOL     OW48498   1.535   7.156   7.012 -0.2885 -0.3415  0.3323
15693SOL    HW148499   1.551   7.240   6.971 -2.1525  0.0233  0.2591
15693SOL    HW248500   1.587   7.094   6.962 -0.4857  0.4799 -0.9235
15694SOL     OW48501   6.483   4.684   1.032  0.5815 -0.3525 -0.3901
15694SOL    HW148502   6.407   4.719   1.077 -1.1468 -1.1993 -2.4585
15694SOL    HW248503   6.516   4.614   1.089  0.2874  0.5174  0.8638
15695SOL     OW48504   5.314   3.531   0.857  0.1250  0.2055 -0.4950
15695SOL    HW148505   5.281   3.581   0.932  1.2203 -1.9073  1.5293
15695SOL    HW248506   5.327   3.442   0.891  2.5377 -0.4029 -2.6427
15696SOL     OW48507   3.203   6.934   0.684  0.3526 -0.0024  0.3037
15696SOL    HW148508   3.122   6.915   0.731  0.2308  0.9132  0.4978
15696SOL    HW248509   3.253   6.852   0.686 -1.0443 -0.9169 -0.8135
15697SOL     OW48510   7.727   6.760   3.098  0.1560  0.4541 -0.6509
15697SOL    HW148511   7.656   6.816   3.131 -0.9566 -0.4204 -1.4518
15697SOL    HW248512   7.717   6.764   3.003  0.8520 -0.1123 -0.7507
15698SOL     OW48513   7.022   5.823   2.803  0.1893 -0.0722 -0.3516
15698SOL    HW148514   6.999   5.830   2.896  1.1687  1.1075 -0.1779
15698SOL    HW248515   6.938   5.825   2.758 -0.2699  0.0114  0.4759
15699SOL     OW48516   4.837   0.800   3.312  0.0125  0.6732  0.7463
15699SOL    HW148517   4.780   0.812   3.237  0.4110  1.5949  0.5717
15699SOL    HW248518   4.865   0.708   3.307  1.9898  1.2993 -1.6789
15700SOL     OW48519   7.435   0.048   3.304  0.4758 -0.0794  0.2647
15700SOL    HW148520   7.501   0.058   3.235 -0.8537 -0.6922 -1.1582
15700SOL    HW248521   7.469   0.099   3.377  2.1132  0.3108 -0.7146
15701SOL     OW48522   6.968   7.831   3.156  0.0742 -0.9510  0.3305
15701SOL    HW148523   7.025   7.869   3.089 -0.9389  2.8070  1.3450
15701SOL    HW248524   6.890   7.802   3.109 -0.2686  0.8657 -0.2800
15702SOL     OW48525   3.098   0.880   4.655  0.0444  0.2212 -0.3247
15702SOL    HW148526   3.039   0.948   4.689  0.3386  0.2849  0.0656
15702SOL    HW248527   3.169   0.929   4.614 -0.4643  0.1462 -1.3287
15703SOL     OW48528   3.014   4.507   7.366 -0.1160  0.3091  0.0025
15703SOL    HW148529   2.966   4.485   7.286  1.0951  0.2101 -0.7260
15703SOL    HW248530   2.978   4.592   7.393 -0.3385  0.4892 -0.8325
15704SOL     OW48531   1.719   2.685   5.387 -0.1225 -0.3856  0.0482
15704SOL    HW148532   1.813   2.692   5.371 -0.0285 -0.9527  0.3185
15704SOL    HW248533   1.711   2.615   5.451 -0.9354 -2.3504 -2.0698
15705SOL     OW48534   5.049   0.100   6.439  0.2520  0.5661  0.5393
15705SOL    HW148535   5.010   0.184   6.464  2.6442  1.3622  1.9194
15705SOL    HW248536   5.062   0.054   6.522 -1.4741 -1.4576 -0.2247
15706SOL     OW48537   1.514   5.183   7.454  0.2816 -0.1613  0.5928
15706SOL    HW148538   1.456   5.118   7.495  1.8780 -1.2058  1.3075
15706SOL    HW248539   1.525   5.151   7.364 -0.4443  0.1856  0.3765
15707SOL     OW48540   6.211   6.130   0.946 -0.1097 -0.3165 -0.3655
15707SOL    HW148541   6.303   6.152   0.961 -0.1380  0.2848 -1.0061
15707SOL    HW248542   6.192   6.062   1.010  0.3528  0.6521  0.8427
15708SOL     OW48543   6.473   1.348   7.042 -0.3483 -0.8087  0.1339
15708SOL    HW148544   6.492   1.352   7.135 -1.1376  0.7095  0.2647
15708SOL    HW248545   6.406   1.414   7.028  0.1378 -0.6195 -1.6084
15709SOL     OW48546   3.000   2.183   7.922  0.0689 -0.0563  0.6798
15709SOL    HW148547   3.013   2.260   7.978  1.7075 -0.0744  0.3862
15709SOL    HW248548   2.938   2.211   7.856  1.1322  1.2630  0.1951
15710SOL     OW48549   5.610   1.137   0.983  0.1719  0.4493 -0.1975
15710SOL    HW148550   5.615   1.227   1.016 -3.0489 -0.3468  3.0878
15710SOL    HW248551   5.591   1.147   0.890 -0.4530  3.1992  0.1379
15711SOL     OW48552   6.343   3.954   2.155 -0.1441 -0.4313 -0.5491
15711SOL    HW148553   6.347   4.010   2.077 -0.8598  0.7632  0.2443
15711SOL    HW248554   6.249   3.948   2.175  0.0905 -0.0866  0.6816
15712SOL     OW48555   6.246   0.793   3.174  0.0368  0.0542  0.0108
15712SOL    HW148556   6.227   0.841   3.093  0.5614 -0.6019 -0.5239
15712SOL    HW248557   6.313   0.729   3.148  1.8364  1.2592  1.4309
15713SOL     OW48558   6.489   0.778   2.342  0.4289  0.2456 -0.0506
15713SOL    HW148559   6.528   0.862   2.370 -0.7930  1.0666 -0.7155
15713SOL    HW248560   6.491   0.724   2.420  1.2193  0.8961  0.4070
15714SOL     OW48561   4.413   5.183   6.553  0.4382 -0.6087 -0.3427
15714SOL    HW148562   4.507   5.200   6.555  0.4969 -0.5574  3.3906
15714SOL    HW248563   4.405   5.091   6.579 -0.5264 -0.0117  1.6638
15715SOL     OW48564   7.773   3.286   7.124 -0.2514  0.0684  0.4519
15715SOL    HW148565   7.767   3.377   7.097 -1.1584  0.1531  0.8948
15715SOL    HW248566   7.704   3.276   7.190  0.1953 -0.7970  0.7976
15716SOL     OW48567   0.663   0.885   3.031  0.1273  0.9381 -0.3919
15716SOL    HW148568   0.590   0.860   3.089 -0.1604 -0.4869 -1.3235
15716SOL    HW248569   0.721   0.936   3.087  0.7814 -1.8921  1.7413
15717SOL     OW48570   6.150   2.817   0.845  0.5446  0.1290  0.3232
15717SOL    HW148571   6.132   2.886   0.781  4.4058  1.2746  0.2419
15717SOL    HW248572   6.194   2.862   0.917  2.8055 -2.1408  0.4932
15718SOL     OW48573   1.633   7.735   5.036 -0.8312  0.4023  0.0400
15718SOL    HW148574   1.583   7.806   5.076 -0.7928 -0.3243  1.4757
15718SOL    HW248575   1.722   7.747   5.068 -0.7319 -0.0327 -0.0633
15719SOL     OW48576   1.155   1.056   4.141 -0.6471  0.2843  0.2351
15719SOL    HW148577   1.247   1.049   4.114 -1.1112 -0.5759 -1.2449
15719SOL    HW248578   1.154   1.023   4.231 -0.1067 -4.1675 -1.1323
15720SOL     OW48579   6.037   4.264   3.507 -0.3534 -0.1151 -0.6944
15720SOL    HW148580   5.965   4.327   3.497 -1.8921 -1.6335  0.3090
15720SOL    HW248581   6.056   4.235   3.418 -0.8600  0.4407 -0.9929
15721SOL     OW48582   2.506   0.291   7.920  0.3229 -0.5841 -0.2117
15721SOL    HW148583   2.578   0.279   7.981  0.5395  0.1793 -0.3140
15721SOL    HW248584   2.428   0.261   7.968  0.3782  0.6690  0.7035
15722SOL     OW48585   5.118   5.283   3.578 -0.3348  0.3313  0.3332
15722SOL    HW148586   5.145   5.198   3.543  0.3996  0.9480 -0.6622
15722SOL    HW248587   5.197   5.337   3.574 -0.8996  1.1946  0.5199
15723SOL     OW48588   8.039   7.993   5.423 -0.4624 -0.4861 -0.1120
15723SOL    HW148589   8.071   8.056   5.487 -2.1520 -0.2331  0.5304
15723SOL    HW248590   8.067   8.028   5.338 -0.3065  0.4591  0.3213
15724SOL     OW48591   2.036   0.564   1.819  0.1670 -0.2305 -0.2655
15724SOL    HW148592   2.059   0.518   1.739 -1.5833 -0.1900 -0.8390
15724SOL    HW248593   1.951   0.603   1.800 -0.0960  0.1203  1.4810
15725SOL     OW48594   4.862   2.882   5.220  0.4039 -0.1355 -0.1785
15725SOL    HW148595   4.851   2.797   5.261  1.5280 -0.2181  0.0043
15725SOL    HW248596   4.923   2.929   5.278 -1.5276  1.4602  0.6643
15726SOL     OW48597   3.231   1.422   0.901  0.5007 -0.1361 -0.3516
15726SOL    HW148598   3.198   1.452   0.816 -0.5860  3.2069  1.0807
15726SOL    HW248599   3.324   1.406   0.886 -0.1256 -2.3450 -2.7098
15727SOL     OW48600   0.400   6.440   3.124  0.4648  0.2447 -0.1579
15727SOL    HW148601   0.353   6.356   3.128 -0.4331  0.7245 -0.2553
15727SOL    HW248602   0.337   6.500   3.083  2.1524  0.2632 -2.9954
15728SOL     OW48603   5.206   3.064   7.580 -0.6126  0.0793 -0.0221
15728SOL    HW148604   5.266   3.063   7.506 -1.1857  1.0549 -0.5209
15728SOL    HW248605   5.177   2.973   7.588  0.9755 -0.4323  0.2930
15729SOL     OW48606   1.101   2.475   3.565  0.1532  0.0739 -0.1920
15729SOL    HW148607   1.137   2.538   3.627 -0.1554 -0.2250  0.2964
15729SOL    HW248608   1.042   2.527   3.510  1.8457  0.7166 -1.4823
15730SOL     OW48609   7.596   1.095   1.654  0.0099  0.2200 -0.4774
15730SOL    HW148610   7.646   1.023   1.617  0.2695 -0.7314  1.6011
15730SOL    HW248611   7.658   1.168   1.659  0.8892 -0.5925  0.9726
15731SOL     OW48612   0.293   7.794   1.071 -0.0880 -1.0678  0.2796
15731SOL    HW148613   0.325   7.882   1.052  0.5125 -1.1634  0.8073
15731SOL    HW248614   0.354   7.735   1.026  0.3960 -1.2468  1.1432
15732SOL     OW48615   2.054   5.798   2.717 -0.5172 -0.4651  0.1875
15732SOL    HW148616   1.972   5.779   2.672  1.0943 -0.7407 -2.8874
15732SOL    HW248617   2.114   5.729   2.688  1.1090  0.3164  1.5232
15733SOL     OW48618   5.119   0.374   5.174 -0.1122  0.4423  0.1760
15733SOL    HW148619   5.113   0.293   5.124  2.0012 -1.2599  2.4542
15733SOL    HW248620   5.195   0.419   5.137  0.7802 -0.2898  1.0701
15734SOL     OW48621   3.780   0.449   0.773 -0.3645  0.7749  0.1466
15734SOL    HW148622   3.770   0.538   0.738  1.2943  1.0712  0.3711
15734SOL    HW248623   3.761   0.392   0.699  0.8389  1.3655 -0.6506
15735SOL     OW48624   0.307   2.881   3.813 -0.2342  0.2057 -0.3015
15735SOL    HW148625   0.329   2.882   3.906 -0.6621  1.0460 -0.1970
15735SOL    HW248626   0.213   2.868   3.810 -0.0969 -0.7524 -0.6578
15736SOL     OW48627   0.367   7.034   2.877  0.0295  0.6453  0.4681
15736SOL    HW148628   0.346   7.113   2.826  0.0813  0.2640 -0.1584
15736SOL    HW248629   0.293   7.024   2.937  0.2744  1.4659  0.9284
15737SOL     OW48630   4.257   7.212   2.845 -0.9020  0.5790  0.0180
15737SOL    HW148631   4.186   7.157   2.879 -0.5948 -0.0250 -0.2961
15737SOL    HW248632   4.251   7.203   2.750 -0.1528  0.1805 -0.0056
15738SOL     OW48633   1.430   5.554   1.617 -0.3647  0.6331  0.2379
15738SOL    HW148634   1.372   5.482   1.641  1.0783 -0.4789  0.5816
15738SOL    HW248635   1.459   5.533   1.528 -0.6152  1.2532  0.0112
15739SOL     OW48636   0.904   4.949   7.433  0.0850 -0.1828 -0.1297
15739SOL    HW148637   0.835   4.908   7.485 -0.4594 -1.2794 -1.6469
15739SOL    HW248638   0.964   4.878   7.412 -0.0372  0.0762 -1.4870
15740SOL     OW48639   6.461   5.496   1.059 -0.3737 -0.2134 -0.3685
15740SOL    HW148640   6.538   5.438   1.056 -0.2316  0.0292 -2.1015
15740SOL    HW248641   6.494   5.577   1.098 -0.1337 -0.6449  0.3449
15741SOL     OW48642   2.236   0.387   3.819 -0.2209 -0.0862  0.3270
15741SOL    HW148643   2.224   0.374   3.913 -1.0765 -1.0004  0.1047
15741SOL    HW248644   2.226   0.482   3.807 -0.7803 -0.0400  1.0690
15742SOL     OW48645   1.803   7.334   7.329  0.0325 -0.6313 -0.4036
15742SOL    HW148646   1.815   7.429   7.332  0.1061 -0.6286 -0.6861
15742SOL    HW248647   1.718   7.319   7.370 -1.2564 -0.1761 -2.7290
15743SOL     OW48648   4.999   4.298   2.946  0.4234 -0.0257 -0.2792
15743SOL    HW148649   4.913   4.258   2.932  0.3123 -0.0465  0.4044
15743SOL    HW248650   5.057   4.251   2.887  0.3358 -1.3607  0.6325
15744SOL     OW48651   2.173   0.845   2.520 -0.1110  0.3165 -0.1473
15744SOL    HW148652   2.235   0.822   2.590 -1.0344  1.4895  1.0953
15744SOL    HW248653   2.117   0.768   2.511 -0.1032  0.2309  0.5268
15745SOL     OW48654   7.757   4.135   7.664 -0.4851  0.3596  0.2686
15745SOL    HW148655   7.721   4.073   7.600 -1.1240  2.2922 -1.3457
15745SOL    HW248656   7.707   4.119   7.744 -4.6409  2.3506 -1.6278
15746SOL     OW48657   1.600   3.516   7.567 -0.0011  0.1400  0.0634
15746SOL    HW148658   1.505   3.531   7.564 -0.2066 -1.1940 -0.8949
15746SOL    HW248659   1.619   3.464   7.489  1.8037  1.7761 -0.6800
15747SOL     OW48660   7.562   0.551   4.078 -0.0916 -0.0480 -0.4638
15747SOL    HW148661   7.642   0.512   4.043  1.1815  1.6001  0.4421
15747SOL    HW248662   7.569   0.541   4.173 -0.3700  1.1067 -0.2982
15748SOL     OW48663   2.655   3.112   6.849  0.6916  0.3428  0.2271
15748SOL    HW148664   2.727   3.174   6.855 -0.8059  1.9682  2.7911
15748SOL    HW248665   2.698   3.026   6.854  2.4324  1.2480  2.9188
15749SOL     OW48666   0.031   0.973   2.032 -0.5666 -0.0642  0.2581
15749SOL    HW148667  -0.030   0.965   2.106  0.4606 -0.1749  1.1203
15749SOL    HW248668   0.062   1.063   2.036  1.4143 -0.7314  1.5692
15750SOL     OW48669   3.335   2.017   7.242 -0.4305 -0.9657  0.6010
15750SOL    HW148670   3.347   1.935   7.196  0.3651  0.5745 -2.1464
15750SOL    HW248671   3.423   2.040   7.273 -0.2883 -0.2445 -0.3172
15751SOL     OW48672   4.680   3.872   1.614 -0.8895 -0.5164  0.1483
15751SOL    HW148673   4.773   3.854   1.601 -0.5591 -0.3918  2.1135
15751SOL    HW248674   4.659   3.938   1.548  0.5423 -0.1823  0.0019
15752SOL     OW48675   6.363   0.400   7.643 -0.7518 -0.0018 -0.4284
15752SOL    HW148676   6.370   0.457   7.567 -0.6945  0.5532 -0.0160
15752SOL    HW248677   6.409   0.320   7.619 -1.3232 -0.0965 -1.2262
15753SOL     OW48678   2.193   2.754   3.245  0.7372  0.1636  0.0017
15753SOL    HW148679   2.123   2.717   3.191 -0.8008  1.5858  0.9655
15753SOL    HW248680   2.161   2.748   3.335  1.5461  1.4580  0.4089
15754SOL     OW48681   6.305   0.571   5.132  0.7507 -0.1199 -0.4987
15754SOL    HW148682   6.287   0.540   5.044 -1.8409  2.0980 -0.8966
15754SOL    HW248683   6.224   0.554   5.180  1.7080 -0.2275  1.1530
15755SOL     OW48684   7.764   6.849   1.022 -0.4603 -0.0505 -0.1264
15755SOL    HW148685   7.761   6.800   0.940  0.6306 -0.0463 -0.1811
15755SOL    HW248686   7.793   6.937   0.996 -0.1435 -0.0378  0.2545
15756SOL     OW48687   1.794   1.970   1.003 -0.2135 -0.3721  0.1129
15756SOL    HW148688   1.829   1.899   1.057 -1.2481 -1.0441 -0.0625
15756SOL    HW248689   1.721   1.929   0.955  0.0960  0.4346 -1.0947
15757SOL     OW48690   5.949   4.679   6.258  0.7350 -0.4878  0.0982
15757SOL    HW148691   5.975   4.625   6.332  0.4057  0.2671  0.7717
15757SOL    HW248692   6.012   4.750   6.256  0.2281 -0.0271  0.2015
15758SOL     OW48693   4.279   1.997   0.055  0.3034 -0.0293  0.3020
15758SOL    HW148694   4.231   1.979  -0.026 -1.3877 -1.1908  1.4933
15758SOL    HW248695   4.231   2.070   0.096  1.7242  1.2159 -0.1444
15759SOL     OW48696   0.555   1.424   0.119  0.0764  0.2165 -0.4831
15759SOL    HW148697   0.482   1.421   0.057  1.1988  0.0836 -1.8444
15759SOL    HW248698   0.612   1.352   0.093  0.5702  0.1190  0.7645
15760SOL     OW48699   5.923   0.122   2.291  0.0305 -0.3202  0.0035
15760SOL    HW148700   5.870   0.051   2.254  3.2358 -2.7027 -0.4760
15760SOL    HW248701   5.926   0.188   2.222 -1.4142 -0.5653 -0.3269
15761SOL     OW48702   1.308   2.044   3.028 -0.8277  0.4069  0.1018
15761SOL    HW148703   1.369   2.039   2.954 -0.5409 -0.7610  0.3938
15761SOL    HW248704   1.239   2.103   2.998  0.3119  1.5870 -0.3207
15762SOL     OW48705   4.633   4.173   2.634  1.0101 -0.1776  0.1856
15762SOL    HW148706   4.671   4.241   2.578 -0.0037  1.0191  0.8684
15762SOL    HW248707   4.648   4.091   2.587 -0.0412  0.7958 -1.9975
15763SOL     OW48708   4.972   5.780   3.356  0.1827  0.3355  0.0113
15763SOL    HW148709   5.029   5.825   3.419  0.2835 -0.1018  0.2315
15763SOL    HW248710   4.884   5.793   3.391  0.3524 -1.2585  1.1139
15764SOL     OW48711   0.392   4.131   5.750  0.0871 -0.3741 -0.0546
15764SOL    HW148712   0.336   4.070   5.703  2.3683 -2.5422 -0.1802
15764SOL    HW248713   0.344   4.150   5.831 -2.5868  1.1472 -1.8316
15765SOL     OW48714   5.421   6.111   0.635 -0.2310  0.2291  0.6323
15765SOL    HW148715   5.445   6.078   0.722 -0.1864  0.5336  0.7348
15765SOL    HW248716   5.496   6.162   0.606 -0.8040  1.3331  1.0319
15766SOL     OW48717   4.159   6.785   1.850  0.5657  0.4682 -0.3124
15766SOL    HW148718   4.252   6.777   1.870  1.0165  3.5253 -0.7039
15766SOL    HW248719   4.115   6.780   1.935  0.9490 -1.7685 -0.1980
15767SOL     OW48720   0.237   0.117   1.143 -0.4949 -0.2810  0.3576
15767SOL    HW148721   0.285   0.094   1.064  1.1208  1.8564  0.6247
15767SOL    HW248722   0.298   0.100   1.215 -1.5489 -1.1779  1.0838
15768SOL     OW48723   2.263   0.932   4.179  0.3650 -0.3623  0.6713
15768SOL    HW148724   2.291   0.908   4.090  0.2783 -0.8037  0.7593
15768SOL    HW248725   2.345   0.949   4.226  0.3727  2.9418 -0.2931
15769SOL     OW48726   5.873   1.515   7.711 -0.9367 -0.2715 -0.2593
15769SOL    HW148727   5.792   1.522   7.762  0.3499  0.5927  1.7832
15769SOL    HW248728   5.893   1.604   7.685 -0.0918 -0.3236  0.1866
15770SOL     OW48729   1.156   1.090   6.680  0.2352  0.0095  0.4754
15770SOL    HW148730   1.103   1.023   6.724  1.6063  0.5715  3.2477
15770SOL    HW248731   1.245   1.054   6.682  0.5496  0.6805 -0.6842
15771SOL     OW48732   5.465   7.775   5.851  0.0805 -0.8770  0.2015
15771SOL    HW148733   5.479   7.831   5.927 -2.0662  2.1819 -1.4346
15771SOL    HW248734   5.384   7.728   5.871  0.1005 -0.8958  0.2389
15772SOL     OW48735   5.460   7.594   6.928 -0.0235 -0.2503  0.5504
15772SOL    HW148736   5.444   7.555   7.014 -0.9568 -0.1231  0.4482
15772SOL    HW248737   5.449   7.522   6.866  2.0224 -0.6552  0.6171
15773SOL     OW48738   3.097   3.113   5.390  0.2577  0.3580  0.1764
15773SOL    HW148739   3.026   3.101   5.326 -0.0522 -1.1605  0.7652
15773SOL    HW248740   3.085   3.042   5.453  2.0991  0.2993  0.5058
15774SOL     OW48741   6.980   1.480   7.309  0.2879  0.1460 -0.2036
15774SOL    HW148742   6.940   1.406   7.353 -2.3656  2.4111  1.5504
15774SOL    HW248743   7.026   1.528   7.378  0.0605  1.2812 -0.8126
15775SOL     OW48744   3.696   0.843   6.989 -0.7374 -0.5348 -0.3732
15775SOL    HW148745   3.765   0.815   6.929 -1.1231 -1.5327 -0.3759
15775SOL    HW248746   3.695   0.776   7.057 -0.7231  0.2613  0.4205
15776SOL     OW48747   0.497   3.622   1.990 -0.1438 -0.0214 -0.2678
15776SOL    HW148748   0.484   3.612   1.896 -0.4716 -0.8032 -0.1468
15776SOL    HW248749   0.581   3.668   1.998  0.3418 -0.7679 -0.9301
15777SOL     OW48750   2.560   7.057   4.416  0.0419  0.3289  0.4039
15777SOL    HW148751   2.573   7.149   4.439  0.9330  0.5992 -1.0100
15777SOL    HW248752   2.584   7.009   4.495 -0.1086  1.2972  1.0578
15778SOL     OW48753   1.246   3.872   5.760  0.4456  0.4035  0.1428
15778SOL    HW148754   1.302   3.856   5.836  1.0989 -1.4767 -0.6504
15778SOL    HW248755   1.174   3.809   5.769  0.3830  0.3522 -0.6335
15779SOL     OW48756   0.614   0.188   4.569 -0.1975 -0.8423  0.1752
15779SOL    HW148757   0.601   0.250   4.498 -1.3635  0.6983  1.6321
15779SOL    HW248758   0.526   0.173   4.604  0.4893  0.0211  2.5070
15780SOL     OW48759   2.001   3.491   1.659  0.2382  0.1580 -0.3852
15780SOL    HW148760   1.917   3.527   1.687  0.4711  0.8127 -0.5123
15780SOL    HW248761   2.064   3.562   1.673  0.7643 -0.3100 -0.3291
15781SOL     OW48762   6.073   1.076   5.351  0.2166 -0.1381  0.4608
15781SOL    HW148763   6.134   1.003   5.365 -0.5314 -0.5323  1.8151
15781SOL    HW248764   6.037   1.095   5.438 -1.6279  0.0436 -0.2877
15782SOL     OW48765   3.978   6.808   0.371 -0.0822 -0.3046  0.1809
15782SOL    HW148766   4.028   6.849   0.442  0.7623  0.9164 -1.0647
15782SOL    HW248767   3.939   6.730   0.411  1.0154 -0.0934  1.7610
15783SOL     OW48768   3.963   1.299   4.507 -0.5474  0.2220 -0.6564
15783SOL    HW148769   3.983   1.380   4.461 -1.4042  0.1987 -1.0895
15783SOL    HW248770   3.872   1.308   4.534  0.2305  0.7212  2.0975
15784SOL     OW48771   1.785   6.959   4.116 -0.1003 -0.0177  0.0570
15784SOL    HW148772   1.871   6.993   4.141  1.2203 -2.4339 -0.8659
15784SOL    HW248773   1.757   7.016   4.044  0.3870  1.2201  0.8214
15785SOL     OW48774   5.527   5.766   8.014  0.3576  0.3874 -0.2037
15785SOL    HW148775   5.460   5.744   8.079  2.1643  1.6181  2.2621
15785SOL    HW248776   5.560   5.682   7.984 -1.5304 -0.2261 -0.6886
15786SOL     OW48777   7.507   1.285   2.799 -0.2635  0.0435  0.4547
15786SOL    HW148778   7.474   1.213   2.853  0.7369 -0.9453 -0.2307
15786SOL    HW248779   7.602   1.275   2.800 -0.0297  1.8839  1.0453
15787SOL     OW48780   2.517   0.923   4.291 -0.0599  0.7747  0.1438
15787SOL    HW148781   2.512   0.863   4.366  0.2277 -0.6672 -0.9420
15787SOL    HW248782   2.611   0.931   4.274 -0.1659  0.1224 -0.7957
15788SOL     OW48783   2.764   0.986   4.183 -0.4589  0.4751  0.2722
15788SOL    HW148784   2.803   0.948   4.262 -0.4076  0.3076  0.1648
15788SOL    HW248785   2.792   0.929   4.112 -0.3606  0.7263  0.1080
15789SOL     OW48786   4.870   6.084   5.066  0.2431  0.3559 -0.2323
15789SOL    HW148787   4.835   6.099   5.154  0.3239  0.0677 -0.1482
15789SOL    HW248788   4.794   6.059   5.014  0.3336 -0.4146 -0.0152
15790SOL     OW48789   8.047   5.081   0.644 -0.5632  0.0955 -0.1384
15790SOL    HW148790   7.957   5.081   0.611 -0.5536  0.1918 -0.1675
15790SOL    HW248791   8.063   5.173   0.668 -0.2473  0.2105 -0.7500
15791SOL     OW48792   2.621   5.210   4.253 -0.3788 -0.1330 -0.0103
15791SOL    HW148793   2.693   5.272   4.242 -0.2963 -0.0595  0.9068
15791SOL    HW248794   2.663   5.126   4.268 -0.4930 -0.3866 -1.0112
15792SOL     OW48795   5.512   4.967   6.930 -0.4522  0.4069  0.3026
15792SOL    HW148796   5.497   4.981   6.836 -1.2899 -2.9628 -0.1949
15792SOL    HW248797   5.453   5.029   6.973 -1.9190  0.2890 -1.4359
15793SOL     OW48798   5.734   3.315   4.840 -0.0469  0.0181 -0.7324
15793SOL    HW148799   5.811   3.316   4.784 -0.4325 -1.7862 -1.3783
15793SOL    HW248800   5.685   3.238   4.811  0.0701 -1.4478  2.5275
15794SOL     OW48801   3.911   4.003   4.863  0.6055 -0.0561  0.4201
15794SOL    HW148802   3.868   4.088   4.857  1.3435  0.2906 -0.3048
15794SOL    HW248803   3.990   4.020   4.916  1.1538 -0.1051 -0.3650
15795SOL     OW48804   5.938   3.540   7.553 -0.5564 -0.1688  0.0023
15795SOL    HW148805   5.992   3.592   7.612  0.2358  0.8979 -1.6251
15795SOL    HW248806   5.998   3.505   7.488 -1.5874 -0.1660 -0.9976
15796SOL     OW48807   2.974   3.151   1.540  0.3743 -0.3208  0.3179
15796SOL    HW148808   2.965   3.202   1.620 -1.2738  0.4981 -0.3339
15796SOL    HW248809   3.051   3.189   1.496  0.3799  0.2460  0.7995
15797SOL     OW48810   5.655   4.447   3.191  0.1378  0.6449 -0.8031
15797SOL    HW148811   5.627   4.538   3.194 -1.1207  0.2704 -0.5814
15797SOL    HW248812   5.604   4.408   3.121 -1.5891 -0.5786  1.0358
15798SOL     OW48813   6.541   0.365   6.862  0.0501 -0.0154 -0.1478
15798SOL    HW148814   6.473   0.338   6.800 -0.4762 -0.0574  0.4418
15798SOL    HW248815   6.600   0.421   6.810 -0.0569 -0.5193 -0.8272
15799SOL     OW48816   6.121   1.250   5.964 -0.3358  0.3995 -0.2480
15799SOL    HW148817   6.063   1.222   5.893  0.0462  1.0175 -0.8201
15799SOL    HW248818   6.084   1.210   6.043 -1.6700  0.9486 -0.5654
15800SOL     OW48819   5.155   2.365   4.801  0.6607  0.3904  0.2754
15800SOL    HW148820   5.184   2.275   4.814  3.3455  0.8420 -1.6883
15800SOL    HW248821   5.180   2.411   4.881 -0.0676 -0.4093  0.9879
15801SOL     OW48822   0.831   6.841   4.626  0.2827  0.6859  0.3463
15801SOL    HW148823   0.898   6.847   4.558  1.8681  0.7391  1.8436
15801SOL    HW248824   0.837   6.750   4.656  1.4506  1.3011  2.1393
15802SOL     OW48825   7.066   6.737   3.902 -0.8380 -0.5147 -0.4918
15802SOL    HW148826   7.013   6.679   3.958 -1.1784  1.1838  1.0168
15802SOL    HW248827   7.153   6.696   3.901 -1.2735 -1.4847 -0.1422
15803SOL     OW48828   5.026   5.484   6.631 -0.2007 -0.3201 -0.6120
15803SOL    HW148829   4.945   5.531   6.651 -0.3812  0.0954 -2.1787
15803SOL    HW248830   5.064   5.531   6.557 -0.4341 -2.6595 -2.3500
15804SOL     OW48831   4.577   2.474   2.156 -0.1633 -0.4014  0.8402
15804SOL    HW148832   4.573   2.398   2.214  0.1670 -1.5681 -0.6022
15804SOL    HW248833   4.492   2.476   2.112  0.9669 -2.1483 -1.7074
15805SOL     OW48834   0.767   6.264   5.689 -0.8368 -0.2437 -0.0990
15805SOL    HW148835   0.818   6.207   5.747 -1.3811 -0.4407  0.2002
15805SOL    HW248836   0.828   6.288   5.620  0.7268  2.2948  1.9621
15806SOL     OW48837   4.374   1.865   2.099  0.2688 -0.5111 -0.1801
15806SOL    HW148838   4.386   1.919   2.177  1.0093 -1.7017  0.5630
15806SOL    HW248839   4.388   1.925   2.026  0.0675  0.5157  0.6003
15807SOL     OW48840   4.650   4.717   2.142 -0.1125  0.0267  0.5075
15807SOL    HW148841   4.742   4.738   2.155  0.2367 -1.8521  1.3247
15807SOL    HW248842   4.637   4.720   2.047  0.1338  2.6867  0.4704
15808SOL     OW48843   6.571   2.470   4.645 -0.3526  0.2013 -0.3977
15808SOL    HW148844   6.637   2.509   4.587  0.8137 -0.9570  0.1150
15808SOL    HW248845   6.505   2.434   4.585  1.5217 -2.1999 -1.1482
15809SOL     OW48846   6.027   1.193   3.708  0.5628  0.0897  0.0058
15809SOL    HW148847   5.986   1.203   3.794  1.0010  0.1653  0.2089
15809SOL    HW248848   6.120   1.212   3.724  0.7505 -0.4872 -0.3619
15810SOL     OW48849   0.807   3.478   4.458  0.0094 -0.2452 -0.6693
15810SOL    HW148850   0.749   3.474   4.382 -0.8965 -0.3854  0.0016
15810SOL    HW248851   0.748   3.472   4.533  0.7802  0.9890  0.0743
15811SOL     OW48852   2.401   7.955   2.851 -0.7263 -0.2006  0.5231
15811SOL    HW148853   2.313   7.982   2.822 -0.4670  1.6234  1.2633
15811SOL    HW248854   2.460   7.998   2.790 -0.3016  0.1719  1.1870
15812SOL     OW48855   2.922   6.530   5.105 -0.1643  0.2233  0.0449
15812SOL    HW148856   2.858   6.508   5.173 -0.2781  1.3165  0.3042
15812SOL    HW248857   2.961   6.612   5.135  1.3613 -0.4258 -0.1169
15813SOL     OW48858   1.427   3.435   5.067 -0.3492 -0.0499  0.2296
15813SOL    HW148859   1.403   3.485   4.989 -0.2700 -0.7944 -0.2806
15813SOL    HW248860   1.428   3.344   5.038 -2.6051 -0.6212  1.6247
15814SOL     OW48861   3.266   7.138   1.323 -0.0849  0.6009 -0.2728
15814SOL    HW148862   3.182   7.181   1.342 -1.8342 -2.5335 -0.2209
15814SOL    HW248863   3.277   7.074   1.393  2.1278  0.5498 -0.5921
15815SOL     OW48864   1.741   2.137   5.803  0.0796 -0.2629 -0.0494
15815SOL    HW148865   1.776   2.159   5.889 -2.6660  0.5319  0.9664
15815SOL    HW248866   1.807   2.168   5.741  2.3709 -1.3513  1.7245
15816SOL     OW48867   3.509   0.803   6.057  0.1386 -0.0356  0.2574
15816SOL    HW148868   3.459   0.858   6.118 -0.4424 -1.5521  1.2133
15816SOL    HW248869   3.443   0.745   6.018  0.8139 -0.4408 -0.3036
15817SOL     OW48870   0.211   1.837   3.924 -0.4750  0.5480 -0.4033
15817SOL    HW148871   0.270   1.898   3.970 -0.7655 -0.6424  1.7025
15817SOL    HW248872   0.123   1.865   3.949 -0.6315 -0.2230 -0.0463
15818SOL     OW48873   4.396   7.611   4.334  0.4778 -0.0670 -0.6064
15818SOL    HW148874   4.464   7.617   4.267  1.4384 -0.7125  0.2697
15818SOL    HW248875   4.434   7.552   4.401 -0.9965 -0.5559 -0.1661
15819SOL     OW48876   0.315   6.206   4.373 -0.1616  0.0403 -0.4141
15819SOL    HW148877   0.311   6.173   4.283  1.0865 -0.2711 -0.3733
15819SOL    HW248878   0.368   6.141   4.420 -0.5106  0.3812  0.4609
15820SOL     OW48879   0.309   4.562   5.569  0.2436 -0.3216  0.6198
15820SOL    HW148880   0.313   4.500   5.496  0.5417 -0.6652  0.9283
15820SOL    HW248881   0.400   4.586   5.586  0.2059 -0.5226  1.1188
15821SOL     OW48882   5.916   1.077   3.226  0.0952  0.1151  0.0685
15821SOL    HW148883   5.859   1.108   3.296  0.5161  1.0770 -0.0008
15821SOL    HW248884   5.863   1.013   3.178 -0.2608 -0.4264  1.1408
15822SOL     OW48885   2.419   1.369   0.567 -0.3734 -0.3736 -0.2937
15822SOL    HW148886   2.354   1.321   0.620 -0.4522  0.7877  0.7045
15822SOL    HW248887   2.503   1.348   0.608 -0.3464 -0.1475 -0.2322
15823SOL     OW48888   1.462   1.510   1.051 -0.8283  0.1683 -0.3922
15823SOL    HW148889   1.466   1.557   1.135  0.8858  1.4336 -1.1332
15823SOL    HW248890   1.431   1.423   1.075  0.0165  0.3593  1.6357
15824SOL     OW48891   2.333   1.387   8.009  0.1435  0.2045 -0.5490
15824SOL    HW148892   2.348   1.322   8.078  1.0112  0.3664 -0.5810
15824SOL    HW248893   2.330   1.471   8.055  4.3683  0.8042 -0.9641
15825SOL     OW48894   2.009   4.476   3.868 -0.1190  0.0211  0.2928
15825SOL    HW148895   1.937   4.534   3.894  0.1215  0.1978  0.5751
15825SOL    HW248896   1.991   4.456   3.776 -0.1287  0.6713  0.1463
15826SOL     OW48897   5.102   8.007   2.305 -0.4655  0.2617 -0.2675
15826SOL    HW148898   5.144   7.993   2.390  0.1994 -1.1116 -0.8103
15826SOL    HW248899   5.174   8.025   2.245 -1.0452  3.9776 -0.1361
15827SOL     OW48900   6.791   5.050   6.576  0.2572  0.0150 -0.7175
15827SOL    HW148901   6.858   5.047   6.644 -0.6706  3.1072  0.5229
15827SOL    HW248902   6.829   5.105   6.507  0.6299 -1.9131 -2.1272
15828SOL     OW48903   5.615   2.931   7.748 -0.5222 -0.1027 -0.5039
15828SOL    HW148904   5.710   2.931   7.751 -0.5376  0.7885  0.9776
15828SOL    HW248905   5.594   2.959   7.659  0.6100  0.1952 -0.6929
15829SOL     OW48906   5.363   1.413   1.483 -0.7761  0.3766  0.5836
15829SOL    HW148907   5.339   1.501   1.513 -0.1934  0.3701  1.0741
15829SOL    HW248908   5.457   1.407   1.497 -0.4294  0.4110 -1.3838
15830SOL     OW48909   4.629   6.154   0.415  0.0803 -0.0525  0.1419
15830SOL    HW148910   4.639   6.059   0.420  0.0332 -0.0356  0.6532
15830SOL    HW248911   4.571   6.176   0.488 -1.0475  0.2204 -0.8200
15831SOL     OW48912   6.095   0.157   5.861 -0.0290 -0.3110  0.1365
15831SOL    HW148913   6.080   0.206   5.781 -2.3472 -3.0236 -1.2647
15831SOL    HW248914   6.163   0.093   5.838  0.4212 -0.0982  0.8397
15832SOL     OW48915   0.282   2.271   5.069  0.4472  0.6254 -0.1012
15832SOL    HW148916   0.285   2.324   4.990  0.2350  0.9387  0.0975
15832SOL    HW248917   0.217   2.314   5.125 -0.3784 -0.3459 -0.2944
15833SOL     OW48918   3.147   2.338   0.215  0.7349  0.0031 -0.1134
15833SOL    HW148919   3.091   2.270   0.252  0.9813 -0.5949 -0.8163
15833SOL    HW248920   3.230   2.295   0.196  0.7523  0.3785 -0.9636
15834SOL     OW48921   1.451   0.247   0.175 -0.0357  0.2010  0.4077
15834SOL    HW148922   1.475   0.197   0.253 -0.3631 -2.1263 -0.8738
15834SOL    HW248923   1.382   0.306   0.204 -0.1535 -0.6176  1.8710
15835SOL     OW48924   1.274   5.542   2.812  0.1091  0.0805  0.1387
15835SOL    HW148925   1.336   5.535   2.739  0.6354  2.0283  0.3514
15835SOL    HW248926   1.327   5.573   2.885 -0.1282 -3.0519  1.8037
15836SOL     OW48927   3.380   1.304   5.002 -0.2939  0.0402 -0.1085
15836SOL    HW148928   3.466   1.344   5.000  0.5637 -1.5158  2.0704
15836SOL    HW248929   3.380   1.249   5.080 -3.4200  0.2998  0.2269
15837SOL     OW48930   7.287   6.728   5.434  0.5582  0.3152  0.4246
15837SOL    HW148931   7.230   6.697   5.363  1.9897 -1.1920 -0.1266
15837SOL    HW248932   7.334   6.802   5.395 -1.6741  2.2834  1.2187
15838SOL     OW48933   3.606   4.589   7.472 -0.0204  0.4116 -0.4576
15838SOL    HW148934   3.521   4.548   7.489  0.2895  0.3801  1.2318
15838SOL    HW248935   3.594   4.680   7.498  0.3180  0.5292 -0.7194
15839SOL     OW48936   3.419   3.328   6.154  0.2858 -0.7234 -0.8289
15839SOL    HW148937   3.449   3.416   6.129  0.5202 -0.4659  0.2876
15839SOL    HW248938   3.324   3.332   6.144 -0.4635  1.4441  4.0293
15840SOL     OW48939   2.695   5.489   1.120  0.0057  0.1615 -0.2380
15840SOL    HW148940   2.628   5.455   1.061 -1.0087  1.5707  0.0511
15840SOL    HW248941   2.772   5.435   1.103 -0.4186  0.1524 -2.4437
15841SOL     OW48942   4.804   1.631   6.490 -0.1348 -0.0086 -0.3040
15841SOL    HW148943   4.746   1.633   6.566 -0.8126 -0.6959 -0.7920
15841SOL    HW248944   4.816   1.723   6.466  1.2204  0.3278  1.4609
15842SOL     OW48945   5.536   1.346   3.444 -0.2849  0.5108 -0.4265
15842SOL    HW148946   5.473   1.405   3.400  1.3985  2.4149 -0.4331
15842SOL    HW248947   5.532   1.371   3.536 -0.3240 -0.1541 -0.2406
15843SOL     OW48948   5.212   1.344   1.167 -0.4114 -0.7088  0.3349
15843SOL    HW148949   5.123   1.377   1.152 -0.2457 -0.7581 -0.8159
15843SOL    HW248950   5.248   1.332   1.079  0.5869 -1.0978  0.7900
15844SOL     OW48951   5.034   7.777   2.198 -0.2318  0.0073  0.1473
15844SOL    HW148952   5.056   7.793   2.106  1.7660  0.4878  0.6557
15844SOL    HW248953   5.060   7.857   2.243  0.3013 -0.8227  1.3499
15845SOL     OW48954   5.153   0.080   5.320 -0.7089  0.2004 -0.5558
15845SOL    HW148955   5.220   0.014   5.336  0.7183  1.5290 -0.8517
15845SOL    HW248956   5.106   0.087   5.404  0.4636  0.2663  0.1159
15846SOL     OW48957   6.340   1.775   1.360 -0.5440 -0.4859 -0.3226
15846SOL    HW148958   6.344   1.701   1.299 -1.8118 -1.8126  1.1188
15846SOL    HW248959   6.379   1.742   1.441 -0.1639  0.7833  0.0356
15847SOL     OW48960   1.200   0.108   0.994  0.2578 -0.2961 -0.0978
15847SOL    HW148961   1.274   0.168   0.979  0.0785 -0.5325 -2.3554
15847SOL    HW248962   1.234   0.042   1.054  1.7460 -0.1236 -0.7061
15848SOL     OW48963   6.043   2.990   5.214 -0.3280  0.4863  0.3423
15848SOL    HW148964   6.044   2.895   5.199 -0.6436  0.3335  1.2551
15848SOL    HW248965   5.951   3.011   5.227 -0.3957  1.1236 -1.0267
15849SOL     OW48966   0.449   0.634   3.457  0.3680 -0.3364  0.4359
15849SOL    HW148967   0.409   0.671   3.535  0.8624 -2.6283  1.8827
15849SOL    HW248968   0.376   0.621   3.396 -0.3582 -0.2660  1.2738
15850SOL     OW48969   7.895   3.048   3.904  0.6840  0.4682 -1.1004
15850SOL    HW148970   7.811   3.033   3.859  0.4290  0.9365 -0.7925
15850SOL    HW248971   7.870   3.081   3.990  1.1532 -0.9530 -0.3953
15851SOL     OW48972   8.013   6.884   1.607 -0.0348  0.4061 -0.1295
15851SOL    HW148973   8.041   6.828   1.535  1.2959  1.1870 -0.2540
15851SOL    HW248974   8.069   6.962   1.600  0.0236  0.5610  1.6584
15852SOL     OW48975   5.668   6.616   3.592  0.2131 -0.3080 -0.1322
15852SOL    HW148976   5.629   6.701   3.613 -0.3595 -0.3810 -0.8900
15852SOL    HW248977   5.652   6.603   3.499 -0.0236 -1.4103  0.0421
15853SOL     OW48978   7.103   5.783   4.919  0.1267  0.6374 -0.0229
15853SOL    HW148979   7.169   5.835   4.965  0.1081 -0.8532  1.8057
15853SOL    HW248980   7.152   5.709   4.882 -0.4288 -0.3793  1.1856
15854SOL     OW48981   5.155   5.889   2.242 -0.1599 -0.6959 -0.1945
15854SOL    HW148982   5.201   5.961   2.198 -0.4804 -0.1796  0.3068
15854SOL    HW248983   5.069   5.888   2.201 -1.0720  0.8852  1.5143
15855SOL     OW48984   2.851   2.055   2.076  0.1554 -0.0665 -0.3864
15855SOL    HW148985   2.899   2.065   2.158  0.4430 -3.1026 -0.0748
15855SOL    HW248986   2.914   2.015   2.016 -0.9482 -0.8242 -1.0713
15856SOL     OW48987   2.524   3.026   3.938 -0.2628 -0.4094  0.6968
15856SOL    HW148988   2.551   3.027   3.846  1.1125 -1.9293  1.0418
15856SOL    HW248989   2.428   3.032   3.935 -0.2422 -0.4474 -0.8238
15857SOL     OW48990   6.187   7.087   7.318  0.0241 -0.3683  0.2264
15857SOL    HW148991   6.114   7.027   7.332 -0.1803  0.3632  2.8882
15857SOL    HW248992   6.189   7.141   7.397  3.0126  0.0792 -0.0214
15858SOL     OW48993   7.176   2.492   1.824  0.1524 -0.4746  0.5212
15858SOL    HW148994   7.253   2.494   1.767  1.0259 -2.3322  1.5693
15858SOL    HW248995   7.121   2.423   1.788 -1.6844  1.5664 -0.9019
15859SOL     OW48996   6.079   1.431   2.131  0.3578 -0.1242 -0.0365
15859SOL    HW148997   6.167   1.467   2.144  0.5408 -0.4822 -0.2736
15859SOL    HW248998   6.085   1.341   2.162 -0.8937  0.8473  3.5267
15860SOL     OW48999   4.992   4.529   7.354 -0.3224  0.0268  0.7307
15860SOL    HW149000   4.972   4.620   7.376  2.2436  0.7644  0.3477
15860SOL    HW249001   5.014   4.488   7.438 -0.5975 -0.0046  0.7887
15861SOL     OW49002   4.502   4.888   7.692 -0.2737 -0.0002 -0.0172
15861SOL    HW149003   4.579   4.886   7.748 -0.3290 -0.9223  0.0327
15861SOL    HW249004   4.537   4.902   7.604 -0.1872  1.4485  0.2086
15862SOL     OW49005   7.810   3.878   6.646  0.0271  0.2550  0.4861
15862SOL    HW149006   7.898   3.867   6.683  0.2651  0.3771 -0.0378
15862SOL    HW249007   7.809   3.968   6.614  1.4118 -1.0295 -3.8405
15863SOL     OW49008   4.231   7.898   7.190 -0.3132 -0.6363  0.2793
15863SOL    HW149009   4.246   7.932   7.278 -2.2530  0.9774  0.0568
15863SOL    HW249010   4.314   7.913   7.144 -0.1930  1.3263  1.0175
15864SOL     OW49011   6.377   6.382   0.759  0.6465  0.1655  0.0152
15864SOL    HW149012   6.419   6.314   0.707  0.1603  1.3058 -1.9609
15864SOL    HW249013   6.397   6.463   0.713 -1.8754  0.9812  0.2015
15865SOL     OW49014   2.528   1.338   4.809 -0.2066  0.5564  0.3456
15865SOL    HW149015   2.577   1.263   4.841 -0.5662  0.2897  0.2808
15865SOL    HW249016   2.447   1.301   4.774 -0.8847  1.0835  1.3197
15866SOL     OW49017   7.196   3.929   0.493 -0.1306  0.1857 -0.3700
15866SOL    HW149018   7.237   4.013   0.517  0.1772 -0.3775  1.1884
15866SOL    HW249019   7.142   3.950   0.417  0.6314  1.6096 -0.5598
15867SOL     OW49020   1.253   2.127   1.323 -0.0008 -0.5211  0.0811
15867SOL    HW149021   1.333   2.177   1.340 -1.1094  0.8658  1.4945
15867SOL    HW249022   1.220   2.160   1.240  0.1524 -0.1047  0.1862
15868SOL     OW49023   5.851   3.329   2.017 -0.4383  0.0409 -0.0036
15868SOL    HW149024   5.884   3.324   1.928  0.6504  0.7789  0.3376
15868SOL    HW249025   5.797   3.409   2.018 -0.3594  0.0942  0.0241
15869SOL     OW49026   2.377   3.948   1.464  0.2870 -0.2714  0.1889
15869SOL    HW149027   2.430   3.889   1.411 -0.1800 -0.7923  0.2892
15869SOL    HW249028   2.289   3.943   1.426  0.0085 -0.4458  0.8329
15870SOL     OW49029   3.516   1.964   1.127  0.2518  0.7296 -0.1198
15870SOL    HW149030   3.435   2.015   1.120 -0.2620 -0.1118 -0.4589
15870SOL    HW249031   3.559   1.999   1.205 -1.1481  0.2314  0.9296
15871SOL     OW49032   0.411   6.195   6.599  0.2229 -0.3390 -0.3502
15871SOL    HW149033   0.446   6.175   6.512  0.3062 -1.8364  0.0077
15871SOL    HW249034   0.394   6.289   6.596  0.6490 -0.2758 -1.8302
15872SOL     OW49035   5.660   4.739   5.863 -0.1893  0.2513  0.5763
15872SOL    HW149036   5.575   4.779   5.878 -0.2542 -0.0477  1.0078
15872SOL    HW249037   5.717   4.776   5.930  0.2857  1.2120 -0.3131
15873SOL     OW49038   0.887   5.719   5.563  0.3362 -0.0508  0.1399
15873SOL    HW149039   0.894   5.755   5.651 -2.9210  0.4670  0.3106
15873SOL    HW249040   0.829   5.644   5.572 -0.2641  0.1639 -1.5565
15874SOL     OW49041   3.298   4.503   7.330  0.0943  0.6650  0.7110
15874SOL    HW149042   3.310   4.594   7.304  0.6340  0.8078  1.4191
15874SOL    HW249043   3.204   4.489   7.327  0.1516  0.4601 -1.9561
15875SOL     OW49044   1.940   6.786   3.428  0.1759 -0.4587  0.0954
15875SOL    HW149045   1.974   6.726   3.361  0.0151  1.0061 -1.3720
15875SOL    HW249046   1.868   6.832   3.384  0.5690  1.0872  1.0120
15876SOL     OW49047   1.240   3.491   4.152 -0.0696 -0.3791 -0.5340
15876SOL    HW149048   1.271   3.552   4.085  0.2928  0.9109  0.7555
15876SOL    HW249049   1.296   3.509   4.228  0.2786 -2.5773 -0.2029
15877SOL     OW49050   2.056   1.860   4.121 -0.1842 -0.4995  0.5109
15877SOL    HW149051   2.101   1.925   4.068 -0.9461 -0.5871 -0.2783
15877SOL    HW249052   2.086   1.875   4.210 -0.0123  0.6376  0.2671
15878SOL     OW49053   6.963   2.098   0.835 -0.0021 -0.5247 -0.0698
15878SOL    HW149054   7.004   2.121   0.919 -0.2458 -2.6567  0.7004
15878SOL    HW249055   6.893   2.162   0.825 -0.5460 -0.7372  1.8411
15879SOL     OW49056   3.174   2.389   5.187 -0.3674  0.2268 -0.4848
15879SOL    HW149057   3.177   2.412   5.280 -1.3077  0.8283 -0.5979
15879SOL    HW249058   3.266   2.391   5.159 -0.0711  0.0040  0.4300
15880SOL     OW49059   7.342   4.919   2.513  0.1450 -0.1445 -0.5029
15880SOL    HW149060   7.342   4.985   2.583  0.0698 -0.2078 -0.4430
15880SOL    HW249061   7.414   4.861   2.536  1.6778  1.1769 -1.7464
15881SOL     OW49062   3.490   5.623   0.199  0.3119 -0.4017  0.4106
15881SOL    HW149063   3.558   5.643   0.264 -0.1506  0.4338  0.6542
15881SOL    HW249064   3.482   5.704   0.149  0.2594 -0.8562 -0.3306
15882SOL     OW49065   1.321   2.426   4.171 -0.2803  0.3705 -0.0329
15882SOL    HW149066   1.340   2.397   4.082 -0.7750  0.5806 -0.2098
15882SOL    HW249067   1.385   2.380   4.225  0.3463  0.6182 -0.5493
15883SOL     OW49068   0.454   6.172   3.962  0.9168 -0.3789  0.0944
15883SOL    HW149069   0.426   6.180   3.870 -0.1593  1.5758  0.5319
15883SOL    HW249070   0.543   6.206   3.963  0.5799  0.5303 -0.0850
15884SOL     OW49071   0.228   3.987   2.571  0.1080 -0.3037  0.7634
15884SOL    HW149072   0.303   4.045   2.585 -0.3058  0.0908  1.4240
15884SOL    HW249073   0.178   3.993   2.653 -2.0581  1.5354 -0.5678
15885SOL     OW49074   4.656   0.312   1.395  0.4333  0.5486  0.2982
15885SOL    HW149075   4.601   0.382   1.431 -0.1896 -0.8968  2.3082
15885SOL    HW249076   4.605   0.278   1.321 -1.7229 -1.0158  2.3458
15886SOL     OW49077   1.577   1.049   1.269 -0.2132 -0.2049  0.1222
15886SOL    HW149078   1.643   1.006   1.215  0.5475 -0.4879  1.2535
15886SOL    HW249079   1.542   0.980   1.325 -2.1326 -0.2574 -1.0420
15887SOL     OW49080   0.856   2.961   4.336  0.2813  0.0998 -0.3055
15887SOL    HW149081   0.846   2.999   4.248  1.4382 -0.8639 -0.8773
15887SOL    HW249082   0.891   2.873   4.320  0.5396 -0.0701  1.1303
15888SOL     OW49083   0.220   3.138   3.335  0.5334 -0.5259 -0.9073
15888SOL    HW149084   0.257   3.176   3.255 -0.6149  0.6166 -0.9311
15888SOL    HW249085   0.261   3.187   3.406  0.4571 -0.5335 -0.8580
15889SOL     OW49086   6.311   7.569   4.903  0.2877  0.0343 -0.4412
15889SOL    HW149087   6.249   7.534   4.839 -0.1000  2.8893 -1.7611
15889SOL    HW249088   6.385   7.509   4.899 -0.8294 -1.3633 -1.5514
15890SOL     OW49089   2.802   0.693   6.937 -0.3158 -0.4439 -0.1570
15890SOL    HW149090   2.872   0.706   6.873  0.3182  0.7978  0.7560
15890SOL    HW249091   2.774   0.781   6.960 -0.5424 -0.8648  1.2630
15891SOL     OW49092   0.710   6.132   4.210  0.1135  0.1093 -0.1787
15891SOL    HW149093   0.768   6.180   4.269  0.4217  0.1676 -0.5252
15891SOL    HW249094   0.633   6.188   4.201  0.4637  0.5298 -0.5644
15892SOL     OW49095   1.508   2.134   7.627 -0.1826  0.1042 -0.0691
15892SOL    HW149096   1.546   2.205   7.680  0.5555  1.5364 -2.3693
15892SOL    HW249097   1.532   2.054   7.673  3.3538  1.0775  0.0845
15893SOL     OW49098   1.652   6.788   7.486  0.4110  0.6111  0.4881
15893SOL    HW149099   1.706   6.828   7.418  0.7345  0.8303  0.8695
15893SOL    HW249100   1.713   6.734   7.536  0.2708  0.8242  0.8956
15894SOL     OW49101   2.106   7.918   1.234  0.2461 -0.1463  0.1076
15894SOL    HW149102   2.144   7.854   1.173  1.1906 -1.5688  2.0686
15894SOL    HW249103   2.169   7.990   1.235  0.7782 -0.6000  0.1824
15895SOL     OW49104   4.246   4.324   0.958 -0.4247 -0.5678 -0.0563
15895SOL    HW149105   4.308   4.396   0.948  1.1314 -1.9628 -0.8390
15895SOL    HW249106   4.197   4.347   1.037  1.3193  0.4249  0.8121
15896SOL     OW49107   2.483   6.964   3.776 -0.3153  0.1306 -0.1916
15896SOL    HW149108   2.523   6.944   3.861  0.2761 -3.1391 -1.1015
15896SOL    HW249109   2.389   6.956   3.792 -0.1996 -0.7485  0.1275
15897SOL     OW49110   1.932   1.661   2.688 -0.0550  0.0120  0.1065
15897SOL    HW149111   2.019   1.630   2.712  0.2900  0.7740 -0.1553
15897SOL    HW249112   1.897   1.593   2.631  0.1306 -0.5766  0.6791
15898SOL     OW49113   6.742   3.031   6.157 -0.7789 -0.0705  0.2077
15898SOL    HW149114   6.808   2.961   6.164 -0.2419  0.4748  0.7537
15898SOL    HW249115   6.776   3.089   6.089 -1.3314 -0.4499 -0.3961
15899SOL     OW49116   0.187   1.281   0.033  0.6093 -0.1343 -0.0138
15899SOL    HW149117   0.218   1.290   0.123 -0.6939  0.5218  0.3866
15899SOL    HW249118   0.233   1.350  -0.015  0.7819 -0.0421  0.2819
15900SOL     OW49119   2.962   7.671   4.945 -1.2061  0.6064  0.0550
15900SOL    HW149120   2.981   7.740   5.009 -1.1531  0.2637  0.4138
15900SOL    HW249121   2.964   7.590   4.996  2.5528 -0.1489 -0.9639
15901SOL     OW49122   5.827   5.271   4.936 -0.6415 -0.1231  0.7428
15901SOL    HW149123   5.918   5.294   4.920 -0.6904  0.8921  1.7388
15901SOL    HW249124   5.788   5.263   4.849  0.3853 -0.5228  0.3121
15902SOL     OW49125   2.959   4.515   5.617 -0.3759  1.1490  0.3396
15902SOL    HW149126   2.871   4.482   5.635 -0.5815  0.8579 -1.0148
15902SOL    HW249127   2.945   4.607   5.592  0.1430  2.2373  3.6312
15903SOL     OW49128   4.889   6.183   1.035  0.6494 -0.5067  0.1135
15903SOL    HW149129   4.917   6.232   1.112 -0.0119  0.5626 -0.3045
15903SOL    HW249130   4.797   6.163   1.051 -0.0878  1.4660 -1.2130
15904SOL     OW49131   3.858   1.268   3.666  0.1382 -0.0377 -0.3722
15904SOL    HW149132   3.902   1.218   3.597  0.5757  0.5442 -0.5163
15904SOL    HW249133   3.912   1.346   3.678 -0.6655  0.5261 -0.3222
15905SOL     OW49134   1.899   3.741   6.598  0.0277  0.2227 -0.3756
15905SOL    HW149135   1.817   3.750   6.646  0.8266  1.0288  0.8892
15905SOL    HW249136   1.878   3.682   6.526 -1.4525 -0.2273  0.3847
15906SOL     OW49137   1.935   4.642   2.751  0.3651  1.1208  0.5048
15906SOL    HW149138   1.950   4.698   2.675 -0.6912  1.7373  0.7377
15906SOL    HW249139   2.021   4.637   2.794  0.4728  2.6612  0.5394
15907SOL     OW49140   3.031   3.334   0.231  0.3737  0.1631 -0.1495
15907SOL    HW149141   2.950   3.309   0.185 -0.3227  1.7979  0.1203
15907SOL    HW249142   3.100   3.320   0.166  0.1955 -2.9954  0.1741
15908SOL     OW49143   5.727   0.257   6.244  1.0324 -0.5031 -0.5789
15908SOL    HW149144   5.664   0.190   6.271  1.2889  0.0375  1.5320
15908SOL    HW249145   5.701   0.335   6.293  0.9730  0.8644 -2.6943
15909SOL     OW49146   2.066   1.870   0.548  0.2488 -0.1510  0.2141
15909SOL    HW149147   2.054   1.958   0.584  2.4470  0.4875 -0.4912
15909SOL    HW249148   1.978   1.831   0.552 -1.3194  2.8250 -1.5199
15910SOL     OW49149   7.764   0.463   6.672  0.3394  0.6381 -0.0620
15910SOL    HW149150   7.815   0.386   6.695  0.0955  0.3914 -0.3487
15910SOL    HW249151   7.756   0.512   6.754 -1.3010 -0.6869  0.6091
15911SOL     OW49152   4.153   0.471   1.450  0.5606 -0.9304  0.3605
15911SOL    HW149153   4.114   0.431   1.372  0.4410  0.0404 -0.0868
15911SOL    HW249154   4.082   0.521   1.489  1.0210 -0.1881  0.2528
15912SOL     OW49155   4.497   6.829   7.244 -0.1005  0.3894 -0.1901
15912SOL    HW149156   4.534   6.911   7.209 -0.5151  0.2925 -0.8675
15912SOL    HW249157   4.527   6.826   7.335  0.4911  0.9544 -0.3595
15913SOL     OW49158   6.534   1.197   6.808  0.0464  0.1810  1.4979
15913SOL    HW149159   6.549   1.267   6.872  0.6849  0.2055  1.3324
15913SOL    HW249160   6.476   1.135   6.852 -2.4924  1.9436  0.8255
15914SOL     OW49161   3.178   7.452   1.454 -0.1733 -0.4778 -0.0086
15914SOL    HW149162   3.095   7.407   1.470 -0.5330  0.4240  0.7898
15914SOL    HW249163   3.166   7.539   1.494  0.9581 -0.1435 -0.3587
15915SOL     OW49164   3.359   0.021   1.138 -0.6059  0.4000  0.3889
15915SOL    HW149165   3.353  -0.018   1.225 -0.0267 -0.0860  0.2145
15915SOL    HW249166   3.386   0.112   1.155  1.0283 -0.0907  0.6711
15916SOL     OW49167   4.825   1.420   3.527  0.1105  0.7125  0.2341
15916SOL    HW149168   4.818   1.352   3.594  1.4081 -0.1857 -0.4898
15916SOL    HW249169   4.771   1.389   3.455  0.6955  0.4395 -0.0928
15917SOL     OW49170   2.946   5.197   4.305  0.3869 -0.1792  0.4826
15917SOL    HW149171   2.978   5.107   4.301  2.9806  0.5910  1.6729
15917SOL    HW249172   2.989   5.235   4.383  1.5537  2.8215 -1.4326
15918SOL     OW49173   5.965   0.829   1.304 -0.0121 -0.0790  0.5708
15918SOL    HW149174   5.976   0.742   1.343  1.1045 -0.6011 -0.8190
15918SOL    HW249175   6.046   0.843   1.254 -1.0378  0.8581 -0.9008
15919SOL     OW49176   1.639   1.601   6.837  0.0518  0.2097 -0.3703
15919SOL    HW149177   1.651   1.638   6.749  0.8427  1.9601  0.4127
15919SOL    HW249178   1.728   1.590   6.870 -0.0559 -3.5163 -0.8852
15920SOL     OW49179   6.946   3.592   5.785 -0.4288 -0.2953  0.0508
15920SOL    HW149180   6.975   3.625   5.700 -0.2962 -1.9064 -0.5831
15920SOL    HW249181   6.851   3.604   5.784 -0.3656  0.2041 -0.0983
15921SOL     OW49182   1.834   3.461   0.003 -0.4742  0.3367 -0.6106
15921SOL    HW149183   1.864   3.405   0.075  0.3494  0.7973 -0.5874
15921SOL    HW249184   1.742   3.437  -0.008 -0.5550  0.0947  0.4490
15922SOL     OW49185   5.717   7.076   6.653 -0.3221  0.2439 -0.8411
15922SOL    HW149186   5.725   7.169   6.673  0.4710 -0.1814  1.0591
15922SOL    HW249187   5.802   7.039   6.676 -1.8174 -1.5745  2.6163
15923SOL     OW49188   4.716   3.007   1.556 -0.7160 -0.2041  0.2620
15923SOL    HW149189   4.719   3.010   1.651  0.3473  3.0638  0.2408
15923SOL    HW249190   4.786   2.947   1.531  1.2069  1.3569  1.5737
15924SOL     OW49191   0.416   0.590   7.721  0.1578 -0.3551 -0.0292
15924SOL    HW149192   0.505   0.556   7.713  0.1376 -1.0500  2.0055
15924SOL    HW249193   0.364   0.535   7.664  1.2225  1.1358 -2.5921
15925SOL     OW49194   2.136   2.871   2.658  0.1036 -0.0115  0.3806
15925SOL    HW149195   2.122   2.817   2.736 -0.7163 -0.1703  0.1376
15925SOL    HW249196   2.078   2.832   2.592  1.9365 -0.8703 -0.7994
15926SOL     OW49197   7.420   6.156   4.745  0.1716 -0.2530  0.6223
15926SOL    HW149198   7.509   6.189   4.750  0.4270 -0.8275  0.0046
15926SOL    HW249199   7.397   6.162   4.652 -1.1332  1.6497  1.0104
15927SOL     OW49200   0.511   3.682   3.796  0.2277  0.0723  0.2516
15927SOL    HW149201   0.451   3.628   3.848 -1.3266  1.5524  0.0947
15927SOL    HW249202   0.598   3.650   3.819 -0.5821 -1.9294  0.7602
15928SOL     OW49203   7.929   7.883   4.711 -0.2198  0.1012 -0.1629
15928SOL    HW149204   7.977   7.815   4.758 -0.5776  0.6558  1.0449
15928SOL    HW249205   7.960   7.965   4.750 -1.7833  0.4903  0.3043
15929SOL     OW49206   1.476   4.013   1.969  0.6711 -0.6067 -0.4365
15929SOL    HW149207   1.464   4.002   2.063  4.2900  0.7846  0.3630
15929SOL    HW249208   1.477   3.924   1.934  1.7820 -1.3244  1.2930
15930SOL     OW49209   2.007   1.415   0.343  0.5424 -0.6122  0.0178
15930SOL    HW149210   2.055   1.359   0.282  1.8915  0.3604  0.1437
15930SOL    HW249211   1.915   1.405   0.318  0.9375 -1.3537 -1.2225
15931SOL     OW49212   6.143   5.166   0.339  0.0457  0.3447  0.3832
15931SOL    HW149213   6.226   5.214   0.336  0.2745 -0.0581 -1.5521
15931SOL    HW249214   6.151   5.109   0.415  0.4366  2.1544  1.7783
15932SOL     OW49215   2.173   1.010   7.344  0.0937 -0.2197 -0.3290
15932SOL    HW149216   2.267   1.023   7.335  0.3996 -1.7924  0.3263
15932SOL    HW249217   2.141   1.093   7.379  1.4692 -0.1616  0.8926
15933SOL     OW49218   0.556   3.818   3.279  0.0521  0.4588  0.2151
15933SOL    HW149219   0.634   3.762   3.284  0.4590  0.9856 -0.1014
15933SOL    HW249220   0.537   3.840   3.370  0.9787  1.2669  0.2304
15934SOL     OW49221   7.723   4.922   3.672  0.1751 -0.1700  0.3024
15934SOL    HW149222   7.682   4.909   3.587  2.1215  2.6746 -1.2438
15934SOL    HW249223   7.649   4.926   3.733 -1.5246  0.2860 -1.6439
15935SOL     OW49224   5.180   4.720   1.794  0.2228  0.1249 -0.0949
15935SOL    HW149225   5.119   4.778   1.839 -1.1015 -2.0335  1.0945
15935SOL    HW249226   5.224   4.672   1.865  0.6707 -0.8760 -1.0181
15936SOL     OW49227   6.432   2.929   3.325 -0.2282  0.2408  0.2088
15936SOL    HW149228   6.339   2.944   3.342  0.1864  2.4028  0.9169
15936SOL    HW249229   6.453   2.852   3.378 -1.5435 -0.0972  0.2839
15937SOL     OW49230   4.363   4.941   3.927  0.0931 -0.0201 -0.2379
15937SOL    HW149231   4.386   4.958   3.836 -1.0952  1.8244 -0.2583
15937SOL    HW249232   4.446   4.947   3.975  0.7159 -0.9562 -1.1633
15938SOL     OW49233   4.094   7.316   7.988  0.0063  0.0447  0.4468
15938SOL    HW149234   4.022   7.327   7.926  0.0367 -0.2136  0.3654
15938SOL    HW249235   4.052   7.281   8.067 -0.3241  2.0297  1.2139
15939SOL     OW49236   6.577   7.725   0.891 -0.3826 -0.8395  0.4198
15939SOL    HW149237   6.624   7.729   0.974 -1.0120  0.3167  0.7460
15939SOL    HW249238   6.644   7.741   0.824 -0.4991  2.7913  0.9693
15940SOL     OW49239   1.265   6.929   1.570 -0.4663  0.0227 -0.3651
15940SOL    HW149240   1.291   6.844   1.605 -0.7501 -0.3607 -1.0648
15940SOL    HW249241   1.171   6.933   1.584 -0.3665  0.4604  0.1708
15941SOL     OW49242   3.660   7.281   3.599  0.4746 -0.0457  0.6342
15941SOL    HW149243   3.691   7.372   3.593 -1.2012  0.5362  0.3246
15941SOL    HW249244   3.699   7.249   3.680  0.1820  1.3237  1.3544
15942SOL     OW49245   6.048   4.984   6.884 -1.1274 -0.2346 -0.1974
15942SOL    HW149246   5.988   5.039   6.834 -0.2522  2.9824  2.0301
15942SOL    HW249247   6.126   4.977   6.829 -1.1225  1.1070 -0.3916
15943SOL     OW49248   0.406   5.056   6.564  0.0121  0.9211 -0.2308
15943SOL    HW149249   0.439   5.139   6.530  1.0110  0.5608 -0.1757
15943SOL    HW249250   0.346   5.025   6.496  0.8234  0.9537 -0.9941
15944SOL     OW49251   0.400   4.558   6.873  0.4057  0.5823 -0.4475
15944SOL    HW149252   0.318   4.519   6.842  0.2482  1.4007 -1.1104
15944SOL    HW249253   0.384   4.576   6.966  0.8004 -1.6767  0.1215
15945SOL     OW49254   5.564   0.842   0.558  0.5545 -0.2726 -0.5816
15945SOL    HW149255   5.563   0.769   0.620  1.8477 -0.3210 -0.5964
15945SOL    HW249256   5.650   0.837   0.516  0.9589  1.6677 -0.0842
15946SOL     OW49257   4.327   6.376   2.674  0.1708  0.7480 -0.0593
15946SOL    HW149258   4.255   6.439   2.676 -0.5641 -0.0862  1.3535
15946SOL    HW249259   4.298   6.309   2.611 -1.5025 -0.8510  2.2222
15947SOL     OW49260   6.239   0.390   3.222 -0.0628  0.2894  0.3311
15947SOL    HW149261   6.235   0.419   3.313  2.0668 -0.4794  0.7074
15947SOL    HW249262   6.286   0.307   3.224  1.3337  0.9349 -1.5962
15948SOL     OW49263   5.245   1.951   3.379 -0.5181 -0.2080 -0.1874
15948SOL    HW149264   5.253   1.922   3.470  0.4563 -1.5249 -0.6674
15948SOL    HW249265   5.155   1.929   3.355 -1.0826  0.9878  0.7034
15949SOL     OW49266   5.384   0.911   3.658  0.5914  0.2310  0.4400
15949SOL    HW149267   5.303   0.951   3.688 -0.6167 -0.7280 -1.3395
15949SOL    HW249268   5.379   0.916   3.562  2.1365 -0.7991  0.2629
15950SOL     OW49269   4.297   3.074   6.548  0.0322 -0.3188  0.5613
15950SOL    HW149270   4.379   3.123   6.542  0.4192 -1.0367 -0.2616
15950SOL    HW249271   4.230   3.135   6.518  0.0679  0.6878  2.3982
15951SOL     OW49272   7.480   7.071   5.495 -0.0150  0.1825 -0.0184
15951SOL    HW149273   7.392   7.035   5.491  0.8849 -2.1085 -0.8149
15951SOL    HW249274   7.474   7.143   5.558 -2.2969 -0.2826  0.3744
15952SOL     OW49275   0.761   1.754   1.408 -0.2433  0.0632  0.3007
15952SOL    HW149276   0.849   1.733   1.377 -0.9815  0.5486 -2.3868
15952SOL    HW249277   0.773   1.829   1.466  1.0069  1.1538 -1.2728
15953SOL     OW49278   2.396   0.042   7.140  0.3848  0.4174 -0.2244
15953SOL    HW149279   2.446  -0.014   7.080  1.5939  0.1787  0.9586
15953SOL    HW249280   2.340  -0.019   7.188 -0.4479  0.5893 -0.9460
15954SOL     OW49281   5.411   1.870   6.875  0.2552  0.1396 -0.6449
15954SOL    HW149282   5.324   1.908   6.861  0.2409  0.2332 -0.3214
15954SOL    HW249283   5.435   1.899   6.963  0.2047 -0.6866 -0.3504
15955SOL     OW49284   0.962   2.636   6.133 -0.1409 -0.2496  0.1307
15955SOL    HW149285   0.974   2.635   6.228  0.0784  0.4314  0.1146
15955SOL    HW249286   0.878   2.680   6.120  0.2032  0.3812 -0.0171
15956SOL     OW49287   3.657   0.521   7.930 -0.1556 -0.0090  0.5598
15956SOL    HW149288   3.628   0.434   7.956 -0.3226 -0.3053 -0.5595
15956SOL    HW249289   3.631   0.578   8.002 -1.0605 -0.7094  0.8079
15957SOL     OW49290   4.084   6.250   5.358  0.5125  0.4693 -0.1391
15957SOL    HW149291   3.990   6.269   5.356  0.8413  2.2674 -1.5342
15957SOL    HW249292   4.104   6.214   5.272  0.9482 -0.8444  0.4977
15958SOL     OW49293   1.483   3.507   1.388 -0.2481  0.0798 -0.0018
15958SOL    HW149294   1.410   3.518   1.327 -1.9449  0.3815  1.9905
15958SOL    HW249295   1.475   3.417   1.419 -1.0725  0.7256  1.7618
15959SOL     OW49296   0.988   0.855   6.397 -0.9638 -0.2672  0.4169
15959SOL    HW149297   0.965   0.785   6.458  1.4250 -0.8480  0.7436
15959SOL    HW249298   0.999   0.812   6.313 -0.4349 -0.1534  0.4202
15960SOL     OW49299   5.061   6.067   0.540 -0.2279  0.0905  0.8396
15960SOL    HW149300   5.004   5.992   0.522 -0.4738  0.3328  0.6044
15960SOL    HW249301   5.064   6.072   0.636  0.2435 -0.5631  0.8660
15961SOL     OW49302   2.441   1.086   7.269 -0.1182 -0.5960  0.7495
15961SOL    HW149303   2.473   1.172   7.243 -0.7855 -0.2104  1.1743
15961SOL    HW249304   2.442   1.035   7.188 -0.5743  0.0870  0.2969
15962SOL     OW49305   1.614   4.387   5.118  0.1264  0.8390 -0.2758
15962SOL    HW149306   1.573   4.348   5.040 -0.5788 -0.6028  0.7792
15962SOL    HW249307   1.702   4.350   5.119  0.0073  0.5550 -0.1828
15963SOL     OW49308   1.642   7.613   4.523  0.4942 -0.5210 -0.1389
15963SOL    HW149309   1.587   7.667   4.580  2.0270  0.0914  0.8256
15963SOL    HW249310   1.638   7.525   4.561  1.2738 -0.1773  0.7597
15964SOL     OW49311   6.120   1.932   4.520  0.1479 -0.3762  0.2506
15964SOL    HW149312   6.095   1.876   4.593  0.4104  0.2957  0.8718
15964SOL    HW249313   6.091   1.885   4.442  0.0507 -1.2015  0.7757
15965SOL     OW49314   0.373   6.139   5.888 -0.5528 -0.7716  0.1085
15965SOL    HW149315   0.409   6.149   5.800 -1.0684  0.3385  0.0061
15965SOL    HW249316   0.281   6.164   5.879 -0.8809 -1.6682  0.7619
15966SOL     OW49317   3.412   5.064   1.096  0.0946  0.4700 -0.1556
15966SOL    HW149318   3.432   5.116   1.019  1.8836  1.1444  0.7047
15966SOL    HW249319   3.496   5.052   1.140 -0.6066 -1.3504  0.8089
15967SOL     OW49320   7.490   0.585   2.481 -0.6312 -0.4430 -0.1139
15967SOL    HW149321   7.531   0.615   2.562 -1.7083  0.3591  0.1642
15967SOL    HW249322   7.538   0.506   2.457 -1.5117 -1.8230  2.3641
15968SOL     OW49323   6.195   6.968   5.438  0.5269 -0.2461  0.5519
15968SOL    HW149324   6.197   6.924   5.353  0.4815 -0.4684  0.6668
15968SOL    HW249325   6.217   6.900   5.502 -0.7292 -0.3948  0.8517
15969SOL     OW49326   5.722   0.371   7.152  0.2391  0.2860 -0.0429
15969SOL    HW149327   5.630   0.379   7.179 -0.4753 -3.0621 -1.0388
15969SOL    HW249328   5.770   0.359   7.234 -0.6156 -0.6378  0.3435
15970SOL     OW49329   6.288   5.608   2.711 -0.2445 -0.7357 -0.0886
15970SOL    HW149330   6.213   5.588   2.654 -1.0743 -0.8942  1.0205
15970SOL    HW249331   6.356   5.638   2.651 -1.3340 -0.1836 -1.1070
15971SOL     OW49332   2.132   3.902   0.724  0.2818 -0.8473  0.6145
15971SOL    HW149333   2.139   3.818   0.679  0.9216 -0.9429  0.8798
15971SOL    HW249334   2.039   3.908   0.749  0.3191 -1.6736  0.9775
15972SOL     OW49335   7.074   0.494   7.321 -0.1184 -0.0131 -0.8775
15972SOL    HW149336   7.035   0.420   7.274 -1.2778  1.0917 -1.7093
15972SOL    HW249337   7.001   0.533   7.370  0.9507 -0.8688  1.5942
15973SOL     OW49338   5.238   3.246   1.824  0.1059  0.3549  0.5623
15973SOL    HW149339   5.237   3.185   1.751 -0.0340  1.5220 -0.4484
15973SOL    HW249340   5.156   3.229   1.871  1.3337 -2.1500  2.0166
15974SOL     OW49341   7.168   0.932   3.547  0.6202  0.7263 -0.0850
15974SOL    HW149342   7.200   1.018   3.520 -1.1294  1.5302  0.2554
15974SOL    HW249343   7.114   0.950   3.624 -1.3859 -0.3677 -1.1329
15975SOL     OW49344   0.207   2.370   2.862 -0.4900 -0.2569  0.0437
15975SOL    HW149345   0.164   2.445   2.821  0.1701 -0.0012 -0.1854
15975SOL    HW249346   0.224   2.310   2.789  0.5933  0.1554 -0.0586
15976SOL     OW49347   5.969   5.534   2.084 -0.2270 -0.1068  0.1964
15976SOL    HW149348   5.989   5.607   2.142  0.3100 -0.9722  1.1226
15976SOL    HW249349   5.947   5.462   2.143  1.8679 -1.4736 -0.5823
15977SOL     OW49350   7.179   1.073   5.868 -0.0332  0.1230 -0.1782
15977SOL    HW149351   7.162   1.160   5.833  2.8797  0.4641 -0.9741
15977SOL    HW249352   7.165   1.014   5.793  0.7952  0.2402 -0.4307
15978SOL     OW49353   0.853   4.799   5.674 -0.5305 -0.6159  0.3488
15978SOL    HW149354   0.780   4.854   5.647  1.4008  1.0938 -1.8630
15978SOL    HW249355   0.817   4.710   5.677 -2.7721  0.2183 -0.1773
15979SOL     OW49356   1.041   3.752   0.071 -0.3969 -0.4661 -0.2220
15979SOL    HW149357   0.985   3.689   0.117 -0.8851  0.2584  0.2051
15979SOL    HW249358   1.130   3.730   0.099 -0.6800 -0.0418  1.0868
15980SOL     OW49359   0.965   5.030   5.166  0.2014  0.1567 -0.3870
15980SOL    HW149360   0.970   5.022   5.071 -1.3301 -0.9642 -0.4155
15980SOL    HW249361   1.022   5.104   5.187  0.1023  0.8089 -2.2384
15981SOL     OW49362   4.662   1.636   4.823  0.2314 -0.1907  0.1322
15981SOL    HW149363   4.577   1.656   4.785  0.4009 -0.9082 -0.6552
15981SOL    HW249364   4.678   1.706   4.886 -0.1157  0.9716 -1.0396
15982SOL     OW49365   5.099   5.880   8.035  0.0713  0.4680 -0.5330
15982SOL    HW149366   5.157   5.906   8.107  0.0430 -0.9483  0.0380
15982SOL    HW249367   5.136   5.922   7.958  0.4351  1.5682  0.2113
15983SOL     OW49368   1.347   1.285   1.583 -0.1259 -0.3479 -0.0769
15983SOL    HW149369   1.251   1.288   1.574 -0.0554 -0.1320 -0.7765
15983SOL    HW249370   1.362   1.216   1.649 -0.7553 -0.4352 -0.0140
15984SOL     OW49371   3.017   5.905   0.168  0.4064  0.1766 -0.5477
15984SOL    HW149372   2.943   5.864   0.124 -0.5575  0.3091  0.8819
15984SOL    HW249373   3.049   5.971   0.105  0.1236 -0.7284 -1.6704
15985SOL     OW49374   3.595   1.251   0.692  0.6715 -0.7829 -0.4810
15985SOL    HW149375   3.570   1.344   0.688 -0.5352 -1.0612  0.0127
15985SOL    HW249376   3.523   1.206   0.648  2.3618 -1.3454 -2.8432
15986SOL     OW49377   5.749   0.772   4.915 -0.0299  0.0391 -0.5632
15986SOL    HW149378   5.756   0.868   4.917  0.4802  0.0736  3.1533
15986SOL    HW249379   5.832   0.741   4.952 -1.0705 -1.7241  0.4153
15987SOL     OW49380   1.262   7.670   1.067 -0.2963 -0.0355 -0.3872
15987SOL    HW149381   1.292   7.703   1.152  1.4948 -0.0025 -0.9867
15987SOL    HW249382   1.167   7.682   1.069 -0.1195  1.5850  0.9260
15988SOL     OW49383   4.813   1.757   8.013  0.4090 -0.7091  0.1899
15988SOL    HW149384   4.868   1.679   8.008  0.5982 -0.5631 -0.0641
15988SOL    HW249385   4.859   1.814   8.075 -0.9958 -1.7816  2.3299
15989SOL     OW49386   5.041   3.019   0.016 -0.0733  0.1175  0.6538
15989SOL    HW149387   5.046   3.109   0.047 -0.1516 -0.5003  2.6242
15989SOL    HW249388   5.129   2.999  -0.015  0.1427  0.6368  0.9257
15990SOL     OW49389   3.749   6.830   1.108 -0.1181  0.4819 -0.1971
15990SOL    HW149390   3.670   6.776   1.098  0.4158 -0.3076 -0.2186
15990SOL    HW249391   3.756   6.878   1.025  0.0724 -0.3311 -0.6564
15991SOL     OW49392   6.752   0.845   1.792  0.2236  0.5512  0.5535
15991SOL    HW149393   6.752   0.820   1.884  0.8150 -0.3242  0.3295
15991SOL    HW249394   6.833   0.894   1.780  0.8194 -0.4890  0.2159
15992SOL     OW49395   4.857   2.326   1.659  0.0229 -0.5286 -0.7778
15992SOL    HW149396   4.766   2.355   1.665  0.2891  0.1918 -0.1259
15992SOL    HW249397   4.908   2.406   1.666  0.8214 -1.1926  1.8282
15993SOL     OW49398   1.723   3.110   2.607 -0.1221  0.2970  0.3872
15993SOL    HW149399   1.722   3.136   2.515 -1.0417 -0.5328  0.1442
15993SOL    HW249400   1.808   3.140   2.639  0.6709 -0.3052 -1.0170
15994SOL     OW49401   0.377   7.488   7.766  0.3134 -0.4629  0.3831
15994SOL    HW149402   0.326   7.538   7.830  0.9255 -0.8505  1.1857
15994SOL    HW249403   0.465   7.523   7.772  0.8759 -1.9106  1.3093
15995SOL     OW49404   2.434   7.297   4.400 -0.1757 -0.3119 -0.1943
15995SOL    HW149405   2.388   7.286   4.317 -0.4546 -0.3771 -0.0307
15995SOL    HW249406   2.365   7.307   4.466  0.0350 -0.8493  0.1164
15996SOL     OW49407   7.683   2.285   4.566  0.2174  0.2276  0.3104
15996SOL    HW149408   7.593   2.252   4.559  0.6362 -1.2912  1.6184
15996SOL    HW249409   7.688   2.321   4.654  1.0348 -0.0976  0.3959
15997SOL     OW49410   6.341   1.815   6.490  0.3880 -0.1655  0.5457
15997SOL    HW149411   6.395   1.763   6.549  0.0929 -1.1862 -0.0585
15997SOL    HW249412   6.286   1.751   6.445  0.6498  0.5649 -0.8759
15998SOL     OW49413   1.917   6.913   1.446  0.1476  0.4053  0.1561
15998SOL    HW149414   1.963   6.850   1.391  0.1736  0.6626 -0.1187
15998SOL    HW249415   1.944   6.999   1.412 -0.3322  0.5584  0.1539
15999SOL     OW49416   3.422   2.960   1.453 -0.1366  0.5320 -0.1190
15999SOL    HW149417   3.471   2.921   1.525  1.2514  1.8595 -0.2859
15999SOL    HW249418   3.332   2.930   1.466  0.4460 -0.8008  1.0451
16000SOL     OW49419   4.756   3.166   0.887 -0.8580  0.2481 -0.5774
16000SOL    HW149420   4.850   3.149   0.880 -0.0778  2.6491  2.2736
16000SOL    HW249421   4.727   3.113   0.961 -1.1745  1.3707  0.1269
16001SOL     OW49422   7.262   5.860   7.495  0.3344 -0.4672 -0.6718
16001SOL    HW149423   7.291   5.950   7.480  0.8595 -0.6956 -1.0402
16001SOL    HW249424   7.174   5.857   7.458  0.0639  0.0609 -0.0937
16002SOL     OW49425   4.488   6.084   7.026  0.3234 -0.0051 -0.2978
16002SOL    HW149426   4.408   6.126   7.056  0.1306 -0.9380  0.5601
16002SOL    HW249427   4.481   5.994   7.057  0.0151 -1.1657 -3.3863
16003SOL     OW49428   6.730   4.121   5.359 -0.0223  0.5279 -0.1949
16003SOL    HW149429   6.762   4.180   5.291  1.3776  0.4810  0.3853
16003SOL    HW249430   6.760   4.034   5.331 -0.4794  0.3422 -0.1160
16004SOL     OW49431   0.173   5.121   6.694 -0.2725 -0.5811  0.1362
16004SOL    HW149432   0.256   5.079   6.673 -0.8121 -1.3512 -0.4797
16004SOL    HW249433   0.197   5.192   6.753  1.4087  2.0335 -3.3201
16005SOL     OW49434   6.741   4.033   6.895 -0.5987 -0.7076  0.4224
16005SOL    HW149435   6.676   4.100   6.871 -0.9016 -0.5023  1.7717
16005SOL    HW249436   6.694   3.950   6.889 -0.5630 -0.6993 -0.0401
16006SOL     OW49437   2.435   5.629   7.422  0.6490  0.2823  0.5862
16006SOL    HW149438   2.355   5.608   7.471 -0.5298  0.7553 -1.0578
16006SOL    HW249439   2.404   5.670   7.342  2.5884  0.9417  0.1201
16007SOL     OW49440   0.241   5.878   2.662  0.0219  0.4111 -0.1888
16007SOL    HW149441   0.322   5.902   2.706  0.8159 -0.7791 -0.9541
16007SOL    HW249442   0.174   5.881   2.731  1.1340 -0.9311  1.0171
16008SOL     OW49443   0.572   0.977   0.577  0.0254  0.1404 -0.2310
16008SOL    HW149444   0.545   1.003   0.665 -1.9914  1.5042 -1.1966
16008SOL    HW249445   0.646   0.918   0.592  0.7797  1.5685  2.3174
16009SOL     OW49446   7.856   7.443   4.408 -0.1979 -0.6632 -0.6398
16009SOL    HW149447   7.816   7.492   4.480 -0.7844 -2.8909  0.6345
16009SOL    HW249448   7.948   7.432   4.435 -0.2774 -1.0025 -0.5069
16010SOL     OW49449   6.274   7.667   1.896 -0.1691 -0.5991 -0.1812
16010SOL    HW149450   6.314   7.659   1.809  2.2033 -0.1674  0.7933
16010SOL    HW249451   6.263   7.577   1.926 -0.2590 -0.7353 -0.6199
16011SOL     OW49452   7.246   6.923   1.049  0.2355  0.0595 -0.3363
16011SOL    HW149453   7.268   6.951   1.138 -1.5753  2.8828 -0.6585
16011SOL    HW249454   7.330   6.918   1.004  0.9567  1.4535  0.7851
16012SOL     OW49455   0.767   0.851   7.450  0.0821 -0.6280  0.8066
16012SOL    HW149456   0.711   0.867   7.525  0.8395  0.3100  1.1851
16012SOL    HW249457   0.828   0.924   7.449  0.7679 -1.1892 -0.0924
16013SOL     OW49458   5.333   2.254   2.509  0.6582  0.5282  0.3286
16013SOL    HW149459   5.342   2.216   2.596  0.6697 -0.8555 -0.2466
16013SOL    HW249460   5.419   2.240   2.467 -0.2432 -1.7057 -0.9633
16014SOL     OW49461   4.118   7.537   6.308  0.3442  1.0600  0.1412
16014SOL    HW149462   4.195   7.540   6.364 -0.6544  1.2783  1.5500
16014SOL    HW249463   4.140   7.594   6.234  1.6174  0.9230  0.3901
16015SOL     OW49464   5.669   3.593   0.643 -0.3438 -0.2942 -0.1897
16015SOL    HW149465   5.595   3.642   0.681  0.7117  0.1654  1.3833
16015SOL    HW249466   5.645   3.501   0.654 -0.8099 -0.1513  0.0266
16016SOL     OW49467   3.357   5.008   7.489  0.1028  0.3520 -0.3256
16016SOL    HW149468   3.370   5.074   7.557  0.5339  0.1381 -0.1987
16016SOL    HW249469   3.331   5.058   7.412  0.8751  0.7132 -0.3585
16017SOL     OW49470   4.936   0.822   0.877  0.2586 -0.2316 -0.0235
16017SOL    HW149471   4.901   0.741   0.840 -0.5447  1.6378 -3.9324
16017SOL    HW249472   5.023   0.829   0.837  0.5271  0.5914  0.6930
16018SOL     OW49473   7.992   0.948   6.642 -0.6398 -0.9000 -0.3317
16018SOL    HW149474   7.935   0.921   6.714 -1.7794  1.1935 -0.3921
16018SOL    HW249475   7.936   0.949   6.565 -0.6230  1.2622 -0.3799
16019SOL     OW49476   1.816   6.261   6.220 -0.1955 -0.2698 -0.3226
16019SOL    HW149477   1.862   6.280   6.138  0.6034 -0.0563  0.1634
16019SOL    HW249478   1.869   6.194   6.263  0.4488  0.9791  0.8952
16020SOL     OW49479   3.648   1.916   6.424 -0.1447 -0.0135 -0.1356
16020SOL    HW149480   3.592   1.856   6.473  0.3127  0.0702  0.5030
16020SOL    HW249481   3.614   2.003   6.446  0.7039  0.0752  0.8549
16021SOL     OW49482   6.065   5.403   4.562 -0.3943  0.1041 -0.0207
16021SOL    HW149483   6.106   5.448   4.488 -1.0390 -0.7050 -0.9008
16021SOL    HW249484   5.990   5.358   4.524  0.5332 -2.1729  0.6939
16022SOL     OW49485   1.134   4.798   0.452 -0.2952 -0.3275 -0.4552
16022SOL    HW149486   1.208   4.779   0.394 -0.3369  0.0344 -0.6308
16022SOL    HW249487   1.057   4.773   0.402 -0.5169  2.2720 -1.5880
16023SOL     OW49488   1.559   3.037   0.453 -0.7059  0.2765  0.4566
16023SOL    HW149489   1.481   3.091   0.441 -0.3992  1.2904  2.4458
16023SOL    HW249490   1.604   3.077   0.528  1.0134 -1.1009  0.2361
16024SOL     OW49491   7.452   2.493   3.100  0.1772  0.0782  0.5867
16024SOL    HW149492   7.470   2.399   3.102  1.5334  0.3251  0.5704
16024SOL    HW249493   7.462   2.522   3.190 -3.5895 -0.3338  1.2828
16025SOL     OW49494   5.551   2.622   4.625  0.1109 -0.0258  0.0940
16025SOL    HW149495   5.550   2.710   4.661  2.1734  0.0269  0.1372
16025SOL    HW249496   5.514   2.631   4.538 -1.5690  0.4923  0.8320
16026SOL     OW49497   7.210   1.655   0.032  0.3308  0.2649  0.3617
16026SOL    HW149498   7.237   1.719  -0.033  1.6130 -0.8887 -0.2951
16026SOL    HW249499   7.159   1.590  -0.017  0.6003 -0.1810  0.6657
16027SOL     OW49500   5.703   2.402   6.855 -0.5354 -0.0499 -0.2358
16027SOL    HW149501   5.646   2.477   6.836  0.1666  0.5886  0.1325
16027SOL    HW249502   5.691   2.344   6.780 -1.7771 -0.0053 -0.1076
16028SOL     OW49503   6.049   0.552   5.234  0.4506 -0.5193 -0.2125
16028SOL    HW149504   6.021   0.598   5.155  1.5746 -1.0725 -0.9645
16028SOL    HW249505   6.028   0.611   5.306  0.8972  0.7091 -1.0593
16029SOL     OW49506   0.303   1.476   1.248 -0.3310  0.2895 -0.1626
16029SOL    HW149507   0.381   1.450   1.199 -0.0207  1.1335 -0.1482
16029SOL    HW249508   0.231   1.462   1.188  0.1108  1.9297 -1.1582
16030SOL     OW49509   7.369   5.486   5.109 -0.2192  0.2572  0.0283
16030SOL    HW149510   7.316   5.542   5.165 -1.0919  0.8963 -1.4022
16030SOL    HW249511   7.393   5.412   5.166 -1.0338  0.8881  1.2472
16031SOL     OW49512   5.162   5.546   2.602 -0.0401  0.2124  0.1936
16031SOL    HW149513   5.119   5.534   2.518  2.3210  0.2449 -1.1123
16031SOL    HW249514   5.179   5.640   2.607 -0.9241  0.3402  1.1454
16032SOL     OW49515   1.698   6.272   1.651 -0.0976  0.6147  0.1120
16032SOL    HW149516   1.764   6.300   1.588  0.0600  0.0929  0.0404
16032SOL    HW249517   1.716   6.323   1.730 -0.4408  1.4448 -0.3307
16033SOL     OW49518   1.675   7.948   5.306 -0.1124 -0.4019 -0.1581
16033SOL    HW149519   1.730   7.883   5.264 -1.9579 -1.7138 -0.6684
16033SOL    HW249520   1.737   8.007   5.349  1.6455 -2.4122  0.2554
16034SOL     OW49521   6.745   4.331   6.835 -0.3690 -0.2213  0.3806
16034SOL    HW149522   6.711   4.413   6.871  1.2909  1.4882 -1.6858
16034SOL    HW249523   6.801   4.296   6.905  0.6190  1.5790  0.5606
16035SOL     OW49524   4.735   1.745   2.023 -0.0103 -0.6173  0.3591
16035SOL    HW149525   4.681   1.822   2.004  0.2788 -0.7351 -1.0679
16035SOL    HW249526   4.675   1.671   2.013  0.3111 -0.7293 -0.9449
16036SOL     OW49527   7.284   0.430   5.077  0.2957 -0.8063 -0.2092
16036SOL    HW149528   7.363   0.479   5.097 -0.3908  0.4526 -0.4450
16036SOL    HW249529   7.263   0.455   4.987 -0.3172 -1.1941 -0.1800
16037SOL     OW49530   1.269   1.253   7.327  0.2376  0.4666  0.7276
16037SOL    HW149531   1.312   1.173   7.295  1.0786  1.1011  0.2457
16037SOL    HW249532   1.264   1.241   7.422 -1.5726 -1.0974  0.5160
16038SOL     OW49533   6.937   0.361   0.339  0.6729 -0.2841  0.0203
16038SOL    HW149534   6.933   0.453   0.367 -0.9145  0.0415 -1.1295
16038SOL    HW249535   6.967   0.314   0.417 -1.1727  0.8716  1.5331
16039SOL     OW49536   4.596   2.453   0.268 -0.0329  0.0738 -0.3455
16039SOL    HW149537   4.563   2.364   0.264 -2.5811  0.9423 -0.4649
16039SOL    HW249538   4.614   2.477   0.178 -0.9708  0.2227 -0.4993
16040SOL     OW49539   3.255   1.031   2.361  0.1773 -0.6341 -0.7523
16040SOL    HW149540   3.178   0.975   2.351  1.0919 -1.9405 -0.6712
16040SOL    HW249541   3.293   1.005   2.445  0.3068  0.5275 -0.4323
16041SOL     OW49542   7.133   5.939   4.337  0.2035  0.1545 -0.3920
16041SOL    HW149543   7.090   5.940   4.423  0.4991 -0.8245 -0.2171
16041SOL    HW249544   7.192   6.014   4.339  0.4744 -0.0635  0.4131
16042SOL     OW49545   2.102   5.614   7.377  0.6973  0.6615 -0.3097
16042SOL    HW149546   2.180   5.629   7.323  0.6120  0.3852 -0.5152
16042SOL    HW249547   2.039   5.573   7.317  0.6188  0.3029  0.0149
16043SOL     OW49548   2.928   2.104   5.996  0.4441 -0.5764  0.2557
16043SOL    HW149549   2.871   2.176   5.968 -0.1195 -0.6065  1.2597
16043SOL    HW249550   2.996   2.099   5.929 -0.0230  0.2954 -0.3001
16044SOL     OW49551   8.024   7.292   3.437  0.2024  0.6174  0.2499
16044SOL    HW149552   7.951   7.262   3.383  1.1999 -1.5051 -0.0254
16044SOL    HW249553   8.098   7.296   3.376  0.7081  1.0198  0.8770
16045SOL     OW49554   5.393   7.819   2.250 -0.2391  0.0628 -0.1460
16045SOL    HW149555   5.455   7.868   2.197 -2.5964  1.5288 -1.7400
16045SOL    HW249556   5.374   7.876   2.324  0.8676 -0.7445  0.7978
16046SOL     OW49557   1.910   0.927   5.067 -0.6334 -0.0704 -0.2153
16046SOL    HW149558   1.829   0.876   5.065 -0.8762  0.2154  1.3821
16046SOL    HW249559   1.881   1.018   5.074 -0.1892 -0.0162  1.1436
16047SOL     OW49560   1.118   0.158   7.170  0.3433 -0.3410 -0.3155
16047SOL    HW149561   1.128   0.126   7.260 -0.8608  1.1766  0.3996
16047SOL    HW249562   1.163   0.093   7.116  1.3840 -1.1046  1.4095
16048SOL     OW49563   1.277   0.512   4.409 -0.0718  0.1619 -0.1533
16048SOL    HW149564   1.204   0.553   4.454 -1.2656 -0.2967 -1.5799
16048SOL    HW249565   1.355   0.544   4.454 -1.1671 -0.1897  2.1215
16049SOL     OW49566   5.653   0.628   2.504  0.3244  0.4610  0.2393
16049SOL    HW149567   5.730   0.683   2.514  0.2865  0.3328  1.3997
16049SOL    HW249568   5.670   0.575   2.426  0.5759  1.7479 -0.5988
16050SOL     OW49569   1.461   4.902   2.402 -0.3076 -0.5611 -0.4169
16050SOL    HW149570   1.372   4.934   2.416 -0.5541 -0.8592 -1.2667
16050SOL    HW249571   1.469   4.828   2.463  0.4254  1.3121  1.8976
16051SOL     OW49572   5.721   4.121   7.846 -0.6069  0.3569  0.3111
16051SOL    HW149573   5.781   4.193   7.827 -0.3933 -0.0631 -0.6835
16051SOL    HW249574   5.769   4.043   7.821 -1.6774  0.0290 -0.8539
16052SOL     OW49575   3.847   0.930   4.002  0.4859 -0.1047 -0.2024
16052SOL    HW149576   3.832   0.845   3.962  2.9562 -0.9787  0.5040
16052SOL    HW249577   3.835   0.914   4.096  1.2958  0.2122 -0.0358
16053SOL     OW49578   0.688   3.422   3.546 -0.0024 -0.0820 -0.4353
16053SOL    HW149579   0.714   3.404   3.637 -0.4220  0.7061 -0.1508
16053SOL    HW249580   0.615   3.362   3.531  0.7173 -0.9380 -0.6010
16054SOL     OW49581   4.338   4.831   5.766  0.0956 -0.2137  0.2599
16054SOL    HW149582   4.403   4.829   5.695 -0.3485  0.0657 -0.1588
16054SOL    HW249583   4.343   4.920   5.801  0.0801 -0.2522  0.3600
16055SOL     OW49584   3.417   2.421   5.125  0.1344  0.0313 -0.0445
16055SOL    HW149585   3.423   2.369   5.044 -1.4836  0.6484 -0.5970
16055SOL    HW249586   3.503   2.411   5.166  0.5193 -1.4588 -1.1242
16056SOL     OW49587   0.696   7.321   0.363 -0.2706  0.0660 -0.0801
16056SOL    HW149588   0.758   7.252   0.387 -1.6647 -1.2830 -0.2542
16056SOL    HW249589   0.739   7.368   0.292  0.3938 -1.0958 -0.4613
16057SOL     OW49590   0.591   4.978   1.107  0.2962  0.4311 -0.2213
16057SOL    HW149591   0.649   4.911   1.143 -0.0502 -1.2678 -2.6066
16057SOL    HW249592   0.505   4.958   1.144  0.0432 -0.9741 -1.4806
16058SOL     OW49593   4.498   3.596   4.741  0.4055 -0.2211 -0.5302
16058SOL    HW149594   4.565   3.578   4.675  1.0687  1.4611 -0.3630
16058SOL    HW249595   4.544   3.589   4.825  0.1269 -0.1048 -0.3650
16059SOL     OW49596   4.338   7.124   6.512 -0.7192 -0.8828 -1.0089
16059SOL    HW149597   4.348   7.031   6.532 -0.6047 -0.7242 -0.2809
16059SOL    HW249598   4.259   7.151   6.559  0.2169 -0.2296  0.2863
16060SOL     OW49599   5.186   2.048   5.443  0.3081  0.3100  0.0352
16060SOL    HW149600   5.189   1.967   5.392  0.9081 -1.5784  2.8087
16060SOL    HW249601   5.098   2.083   5.428 -0.2323 -1.2650 -0.6734
16061SOL     OW49602   4.659   0.842   7.509 -0.0070  0.9859 -0.0625
16061SOL    HW149603   4.666   0.799   7.594 -0.3490  0.3105 -0.3699
16061SOL    HW249604   4.650   0.935   7.530 -0.4295  0.7944  0.6526
16062SOL     OW49605   6.783   1.437   5.491 -0.1561  0.2755  0.0543
16062SOL    HW149606   6.696   1.447   5.451 -0.1499  0.2608  0.0378
16062SOL    HW249607   6.815   1.353   5.459  0.2446  0.6927 -0.6766
16063SOL     OW49608   6.912   3.751   8.060  1.0624 -0.6979  0.4372
16063SOL    HW149609   6.830   3.787   8.026  1.4983  1.0539  1.0984
16063SOL    HW249610   6.914   3.661   8.029 -0.7204 -0.5324 -0.2710
16064SOL     OW49611   7.538   2.540   3.368 -0.2573 -0.6041 -0.3365
16064SOL    HW149612   7.587   2.569   3.445 -2.4354  0.7917  0.6339
16064SOL    HW249613   7.591   2.569   3.294  0.7726  0.1012  0.6440
16065SOL     OW49614   6.120   7.264   3.281 -0.0580 -0.1157 -0.0519
16065SOL    HW149615   6.117   7.355   3.249  0.2157  0.0107  0.2834
16065SOL    HW249616   6.165   7.216   3.211  2.3717  0.5221  0.9736
16066SOL     OW49617   0.959   5.863   4.806  0.0382 -0.0514  0.9035
16066SOL    HW149618   0.887   5.926   4.811 -0.1432  0.2197 -2.4036
16066SOL    HW249619   1.038   5.916   4.819 -0.2300  0.3019  1.1053
16067SOL     OW49620   4.071   4.700   0.117  0.8191  0.4081 -0.0119
16067SOL    HW149621   4.051   4.752   0.195 -1.0225  0.3166 -0.3800
16067SOL    HW249622   4.107   4.618   0.152  1.3275  0.9104  0.6719
16068SOL     OW49623   7.684   7.061   2.713  0.2815 -0.6594  0.0277
16068SOL    HW149624   7.720   6.999   2.776  0.5369 -1.7021 -1.1002
16068SOL    HW249625   7.756   7.121   2.693  1.3581 -2.4667 -1.8844
16069SOL     OW49626   2.489   2.040   5.527 -0.3046 -0.1872 -0.8157
16069SOL    HW149627   2.413   2.010   5.476 -0.2360 -1.3824 -0.2427
16069SOL    HW249628   2.454   2.104   5.588 -0.8510 -0.6691 -0.6165
16070SOL     OW49629   3.296   6.820   1.775 -0.3398 -0.1343  0.1204
16070SOL    HW149630   3.209   6.854   1.753  0.4977  1.1500 -1.3934
16070SOL    HW249631   3.293   6.808   1.870 -1.1432  3.0497  0.6148
16071SOL     OW49632   1.649   2.237   7.403 -0.1870 -0.7308 -0.3359
16071SOL    HW149633   1.737   2.203   7.419  0.1020 -0.5303 -1.4379
16071SOL    HW249634   1.592   2.180   7.455  0.5611 -1.0454  0.1565
16072SOL     OW49635   6.610   5.407   6.232 -0.2327  0.3929  1.0900
16072SOL    HW149636   6.562   5.324   6.231 -1.8707  1.2879  1.3499
16072SOL    HW249637   6.654   5.410   6.147 -2.5444  0.5318 -0.1993
16073SOL     OW49638   0.592   0.668   6.085 -0.3439  0.1667 -0.6356
16073SOL    HW149639   0.517   0.713   6.124 -1.6923 -0.8503 -1.9473
16073SOL    HW249640   0.636   0.627   6.159 -1.5960  0.0586  0.0841
16074SOL     OW49641   5.194   6.269   7.635 -0.1128  0.8636  0.1719
16074SOL    HW149642   5.144   6.337   7.680 -0.5686  1.4996 -1.2233
16074SOL    HW249643   5.169   6.279   7.543 -0.4461 -1.4344 -0.0335
16075SOL     OW49644   7.359   4.184   0.502 -0.2972 -0.0964  0.4484
16075SOL    HW149645   7.419   4.109   0.499  2.2226  1.8348 -0.7551
16075SOL    HW249646   7.365   4.216   0.591 -1.6045 -1.4047  1.0528
16076SOL     OW49647   1.509   3.838   3.243 -0.5100  0.7955  0.3535
16076SOL    HW149648   1.594   3.876   3.266  0.5329 -0.9810 -0.3587
16076SOL    HW249649   1.493   3.772   3.311 -1.4356  1.2376  0.5848
16077SOL     OW49650   2.937   6.164   5.159 -0.3384  0.2173 -0.3752
16077SOL    HW149651   2.953   6.223   5.085  0.5634 -0.2847 -0.5979
16077SOL    HW249652   3.023   6.155   5.200 -0.6374 -0.3021  0.1349
16078SOL     OW49653   7.834   3.393   3.736  0.2927  0.3821  0.0288
16078SOL    HW149654   7.866   3.477   3.769 -1.4021  1.1323 -0.1056
16078SOL    HW249655   7.782   3.357   3.808  0.3249 -0.1691 -0.2130
16079SOL     OW49656   3.402   6.369   6.086  0.1629  0.2372 -0.1053
16079SOL    HW149657   3.353   6.430   6.142  0.8783  0.2941  0.4793
16079SOL    HW249658   3.335   6.326   6.033 -0.4957  0.4794  0.5095
16080SOL     OW49659   3.245   3.999   1.755  0.1514  0.2231  0.1213
16080SOL    HW149660   3.314   3.933   1.746  0.4413  0.2908  1.5591
16080SOL    HW249661   3.259   4.059   1.682 -0.0029 -1.1816 -1.1126
16081SOL     OW49662   4.459   2.864   2.146  0.5829 -0.3050  0.0913
16081SOL    HW149663   4.414   2.885   2.228 -0.2882 -0.3309 -0.3719
16081SOL    HW249664   4.468   2.949   2.102 -1.2647 -0.5920 -0.9350
16082SOL     OW49665   7.248   4.656   4.181 -0.0243 -0.2805  0.1440
16082SOL    HW149666   7.299   4.588   4.139  0.7256  0.9714 -1.0391
16082SOL    HW249667   7.283   4.662   4.270  0.1138 -1.1878  0.1555
16083SOL     OW49668   6.207   7.500   5.834  0.5722 -0.0996  0.0785
16083SOL    HW149669   6.259   7.456   5.900  1.1314 -0.7221 -0.7477
16083SOL    HW249670   6.266   7.509   5.759  0.4465  1.9675  0.1597
16084SOL     OW49671   3.738   6.621   7.440  0.0665  0.0957  0.4399
16084SOL    HW149672   3.770   6.655   7.357  1.6814  0.4740  1.1683
16084SOL    HW249673   3.777   6.534   7.448 -1.8964 -0.8855 -0.1916
16085SOL     OW49674   3.717   6.292   7.260 -0.2160  0.4060 -0.0910
16085SOL    HW149675   3.633   6.335   7.240 -0.8567 -0.6667  0.2619
16085SOL    HW249676   3.707   6.203   7.226  1.5211  0.8152 -1.8589
16086SOL     OW49677   2.198   4.066   7.498 -0.3928 -0.1183  0.0956
16086SOL    HW149678   2.122   4.037   7.447  0.1387  0.8730 -1.3240
16086SOL    HW249679   2.189   4.161   7.502  1.3528  0.1417 -1.1227
16087SOL     OW49680   2.151   3.304   0.807  0.5397 -0.8246 -0.3477
16087SOL    HW149681   2.139   3.214   0.837 -1.7684 -0.8202 -1.0921
16087SOL    HW249682   2.236   3.330   0.843  0.6297 -2.8183  1.0312
16088SOL     OW49683   4.483   4.199   2.240 -0.2841 -0.0358  0.4694
16088SOL    HW149684   4.424   4.220   2.313 -0.6416  2.6152 -0.4727
16088SOL    HW249685   4.564   4.245   2.261  1.3744 -3.0727  1.3963
16089SOL     OW49686   4.862   5.605   0.433 -0.4355  0.1875 -0.0237
16089SOL    HW149687   4.896   5.550   0.504  0.1232 -0.2688 -0.6301
16089SOL    HW249688   4.769   5.584   0.429 -0.8320  1.4407  1.6529
16090SOL     OW49689   0.988   1.497   3.273  0.6197 -0.3477 -0.0520
16090SOL    HW149690   0.916   1.481   3.333 -0.1421  3.1071  0.1209
16090SOL    HW249691   0.967   1.445   3.196 -2.0739  0.5078  0.0131
16091SOL     OW49692   2.759   3.913   4.279  0.8310  0.5613 -0.0186
16091SOL    HW149693   2.807   3.995   4.266  0.4071  0.6621 -1.0350
16091SOL    HW249694   2.702   3.930   4.353  1.1859  0.9851  0.1632
16092SOL     OW49695   4.912   1.311   3.157  0.4258 -0.6137 -0.1616
16092SOL    HW149696   4.902   1.290   3.250 -0.4797 -1.9350 -0.5230
16092SOL    HW249697   4.905   1.226   3.113  1.5903 -0.1053 -1.3950
16093SOL     OW49698   6.793   7.275   0.140 -0.5531  0.1104 -0.4870
16093SOL    HW149699   6.760   7.251   0.053  0.8209 -0.5043 -0.8821
16093SOL    HW249700   6.780   7.196   0.193  0.3199 -0.1671 -0.6706
16094SOL     OW49701   4.897   3.229   4.429 -0.1086  0.5772  0.1284
16094SOL    HW149702   4.941   3.170   4.490  0.2235  1.4698  0.7653
16094SOL    HW249703   4.905   3.186   4.344  0.9422  0.1515  0.4327
16095SOL     OW49704   6.486   4.981   4.247  0.0024  0.2560 -0.3701
16095SOL    HW149705   6.551   5.050   4.258 -0.6142  0.7466  0.3390
16095SOL    HW249706   6.428   5.013   4.179  0.1893  0.0541 -0.6287
16096SOL     OW49707   6.324   6.250   7.510  0.2611 -0.1264 -0.8250
16096SOL    HW149708   6.351   6.340   7.493  1.0094 -0.4837 -1.6083
16096SOL    HW249709   6.325   6.242   7.605 -1.5423  1.1911 -0.6491
16097SOL     OW49710   6.080   7.130   4.476  0.0011  0.2461 -0.2183
16097SOL    HW149711   6.119   7.196   4.418  0.6399  1.7303  1.7933
16097SOL    HW249712   6.025   7.077   4.418 -0.3160  2.3456 -1.9796
16098SOL     OW49713   1.887   6.261   2.014  0.1611  0.4939 -0.4188
16098SOL    HW149714   1.982   6.266   2.021  0.3959 -2.5847 -0.3123
16098SOL    HW249715   1.857   6.253   2.104  0.1026 -1.4358 -0.5665
16099SOL     OW49716   3.754   6.197   6.922  0.4041  0.5248  0.1433
16099SOL    HW149717   3.674   6.149   6.943  0.4167  0.1192 -0.6874
16099SOL    HW249718   3.824   6.132   6.931  0.3439  0.1396 -1.7072
16100SOL     OW49719   2.528   6.700   2.759  0.1993 -0.4078 -0.0805
16100SOL    HW149720   2.558   6.638   2.825 -1.1069 -1.0589 -0.0741
16100SOL    HW249721   2.529   6.650   2.677 -0.5547 -0.3541 -0.1279
16101SOL     OW49722   7.141   2.236   6.792 -0.5590  0.2824  0.3939
16101SOL    HW149723   7.061   2.224   6.842 -0.0843  0.6232  1.2539
16101SOL    HW249724   7.159   2.330   6.798  1.2691 -0.1212  2.4015
16102SOL     OW49725   1.004   3.980   2.110  0.8432 -0.1847  0.0998
16102SOL    HW149726   1.048   4.036   2.046  3.6342  0.4242  2.3412
16102SOL    HW249727   0.996   3.895   2.067  1.2551  0.5832 -1.5460
16103SOL     OW49728   7.516   2.829   2.030  0.3438 -0.3275  0.4828
16103SOL    HW149729   7.473   2.744   2.039  0.4796 -0.3188  1.3103
16103SOL    HW249730   7.471   2.885   2.092 -1.7113  1.0495 -2.0571
16104SOL     OW49731   5.945   6.963   6.127 -0.0204 -0.2147  0.4718
16104SOL    HW149732   5.849   6.962   6.120 -0.2231  0.4957  2.4737
16104SOL    HW249733   5.972   7.036   6.072 -0.5322 -0.9108 -0.7467
16105SOL     OW49734   6.790   4.335   1.891 -0.6283 -0.1544  0.1342
16105SOL    HW149735   6.858   4.287   1.938 -0.4364 -0.1353 -0.1211
16105SOL    HW249736   6.749   4.270   1.834  0.0663  0.1053 -0.6967
16106SOL     OW49737   6.788   7.344   1.090  0.6394  0.1820  0.5043
16106SOL    HW149738   6.859   7.324   1.151  0.9239  0.7623  0.3725
16106SOL    HW249739   6.740   7.415   1.132  2.3505  2.3863 -1.0529
16107SOL     OW49740   3.188   1.708   3.808 -0.0789 -0.6045  0.4074
16107SOL    HW149741   3.262   1.649   3.819  2.4721  2.2803  0.0827
16107SOL    HW249742   3.190   1.764   3.886 -0.1438  1.2582 -0.8567
16108SOL     OW49743   2.064   6.590   1.806 -0.2777 -0.5490 -0.0587
16108SOL    HW149744   2.055   6.512   1.751 -0.2521 -1.1724  0.8156
16108SOL    HW249745   2.078   6.661   1.743 -0.4610 -1.2138 -0.8746
16109SOL     OW49746   0.811   4.511   0.460 -0.2149  0.2521 -0.3379
16109SOL    HW149747   0.887   4.466   0.424 -1.6137  0.3724 -3.8622
16109SOL    HW249748   0.805   4.592   0.410 -2.9118 -0.0027 -0.6036
16110SOL     OW49749   7.560   1.247   1.042  0.0239  0.6005 -0.5665
16110SOL    HW149750   7.580   1.177   1.104 -1.2562  0.7462  0.0363
16110SOL    HW249751   7.480   1.287   1.075 -0.6412  0.7514 -2.2622
16111SOL     OW49752   7.596   5.754   6.245  0.2032 -0.2117 -0.2716
16111SOL    HW149753   7.639   5.748   6.330 -0.3212 -0.0430  0.0138
16111SOL    HW249754   7.643   5.822   6.198  0.3647 -0.1619 -0.0368
16112SOL     OW49755   7.759   0.208   4.765 -0.5788 -0.3817  0.0435
16112SOL    HW149756   7.841   0.167   4.791  0.1158 -0.3271 -1.9015
16112SOL    HW249757   7.754   0.288   4.817 -0.0798 -1.0558  1.1463
16113SOL     OW49758   0.011   1.717   4.252 -0.2969 -0.1101 -0.6452
16113SOL    HW149759   0.091   1.676   4.285  0.1128  0.1334 -1.3188
16113SOL    HW249760   0.005   1.799   4.301  0.8691  0.7408 -1.8635
16114SOL     OW49761   4.672   4.028   1.387 -0.8444  0.5174  0.0866
16114SOL    HW149762   4.748   4.007   1.332 -0.1113  1.9897  0.4801
16114SOL    HW249763   4.618   4.085   1.333 -2.2786 -1.3848 -0.5930
16115SOL     OW49764   2.387   7.721   0.827  0.3593  0.2314 -0.0302
16115SOL    HW149765   2.348   7.657   0.767 -0.0965  0.7049 -0.2516
16115SOL    HW249766   2.409   7.795   0.772  2.1347 -0.2434 -0.0035
16116SOL     OW49767   5.209   5.130   8.036 -0.0163  0.2784  0.2286
16116SOL    HW149768   5.211   5.082   8.119 -1.0446  2.6547  1.7187
16116SOL    HW249769   5.267   5.204   8.050 -0.1077  0.6581 -1.2559
16117SOL     OW49770   6.849   1.925   2.218 -0.5005 -0.2440 -0.3506
16117SOL    HW149771   6.813   1.975   2.291  0.0922  0.3976 -0.4880
16117SOL    HW249772   6.839   1.834   2.244  1.1660 -0.0147  1.2741
16118SOL     OW49773   7.914   0.407   3.239 -0.2893 -0.0106 -0.0600
16118SOL    HW149774   7.995   0.366   3.266 -0.1156 -0.3895 -1.0964
16118SOL    HW249775   7.890   0.465   3.311  0.3042 -0.7371  0.7271
16119SOL     OW49776   3.942   6.478   5.214  0.4758  0.2622 -0.0711
16119SOL    HW149777   3.974   6.548   5.157 -0.6633 -0.2268 -1.3628
16119SOL    HW249778   3.914   6.409   5.154 -1.9272  0.2196  0.9907
16120SOL     OW49779   2.369   2.205   2.801 -0.5126  0.0667 -0.1243
16120SOL    HW149780   2.377   2.224   2.707 -1.9895  0.7192 -0.1446
16120SOL    HW249781   2.426   2.269   2.843  0.3385 -0.3808 -0.5769
16121SOL     OW49782   3.268   2.121   2.045  0.3054  0.6070 -0.1932
16121SOL    HW149783   3.202   2.054   2.059  0.6538 -0.1012 -1.7479
16121SOL    HW249784   3.328   2.112   2.119 -0.8993  0.7748  0.8438
16122SOL     OW49785   6.444   5.207   7.582  0.1445  0.6142  0.3722
16122SOL    HW149786   6.353   5.196   7.554  0.1249 -1.8602  1.2503
16122SOL    HW249787   6.494   5.203   7.500 -0.3268 -1.1662  0.1302
16123SOL     OW49788   4.187   0.128   4.756  0.1987  0.0471 -0.9238
16123SOL    HW149789   4.131   0.127   4.834 -1.2846 -0.4231 -1.9344
16123SOL    HW249790   4.227   0.214   4.755  0.7141 -0.1485  0.6646
16124SOL     OW49791   7.116   6.764   3.045  0.0474  0.6663  0.0485
16124SOL    HW149792   7.180   6.762   2.974  0.5323  0.3177  0.4866
16124SOL    HW249793   7.152   6.827   3.108  0.1070  0.2602  0.4266
16125SOL     OW49794   3.622   0.911   0.385 -0.0222  0.1007 -0.5894
16125SOL    HW149795   3.598   0.903   0.478  0.4501 -1.6903 -0.5862
16125SOL    HW249796   3.717   0.921   0.386  0.0719 -0.7380 -0.9048
16126SOL     OW49797   4.055   3.774   4.053  0.1579 -0.8203 -0.6120
16126SOL    HW149798   4.122   3.726   4.004 -0.2331 -1.8614 -0.1488
16126SOL    HW249799   4.100   3.853   4.084  0.6058 -0.4719 -2.0328
16127SOL     OW49800   2.192   6.544   4.867 -0.2189  0.1790 -0.3026
16127SOL    HW149801   2.250   6.562   4.793  0.9150  0.8879  0.7117
16127SOL    HW249802   2.213   6.613   4.931 -1.9662  0.2613  0.2396
16128SOL     OW49803   2.915   6.565   0.545 -0.0092  0.0590 -0.4335
16128SOL    HW149804   2.933   6.530   0.457  0.5668 -0.2544 -0.1926
16128SOL    HW249805   2.856   6.501   0.585  0.8595 -0.5352 -0.0779
16129SOL     OW49806   7.751   0.921   4.479  0.1038  0.4811  0.2609
16129SOL    HW149807   7.775   1.011   4.456 -0.9434  0.7610  0.2317
16129SOL    HW249808   7.686   0.896   4.413  0.3396 -0.2795  0.3036
16130SOL     OW49809   6.365   7.041   2.628 -0.1811 -0.0361  0.2813
16130SOL    HW149810   6.355   7.127   2.667  0.9239  0.0062  0.5053
16130SOL    HW249811   6.433   7.052   2.561 -0.4334 -0.6084 -0.0812
16131SOL     OW49812   7.237   6.394   4.761  0.0876  0.1155  0.5355
16131SOL    HW149813   7.160   6.412   4.816 -1.2086  2.3985 -1.7730
16131SOL    HW249814   7.243   6.299   4.758 -2.2767 -0.1318  1.3600
16132SOL     OW49815   6.613   3.268   1.733  0.2572  0.3236  0.0312
16132SOL    HW149816   6.583   3.337   1.673  1.6123  0.6044 -0.3524
16132SOL    HW249817   6.549   3.198   1.722  0.4631  0.3693 -1.7557
16133SOL     OW49818   4.976   2.309   7.416 -0.5232 -0.9602  0.5871
16133SOL    HW149819   4.937   2.224   7.436 -1.2490 -0.5587  0.9049
16133SOL    HW249820   4.932   2.371   7.474 -3.0505  0.3576 -2.4498
16134SOL     OW49821   2.556   2.050   5.903  0.3589 -0.2131  0.0447
16134SOL    HW149822   2.487   2.063   5.838 -1.4325 -0.2443  1.8558
16134SOL    HW249823   2.615   1.986   5.862 -2.4634 -2.8115 -0.3567
16135SOL     OW49824   4.424   4.302   4.254 -0.0172 -0.1025  0.1983
16135SOL    HW149825   4.336   4.306   4.292 -0.2065  0.3305 -0.2614
16135SOL    HW249826   4.431   4.212   4.220  0.3034 -0.6117  1.5669
16136SOL     OW49827   2.959   4.020   4.779 -0.2279 -0.1328  0.6251
16136SOL    HW149828   2.983   3.943   4.727  0.0154 -0.0727  0.6482
16136SOL    HW249829   2.882   4.056   4.734 -0.4322 -0.4736  0.7011
16137SOL     OW49830   7.506   6.569   0.305  0.5572  0.4297  0.6573
16137SOL    HW149831   7.559   6.648   0.317 -0.5375  1.5985 -1.6225
16137SOL    HW249832   7.568   6.504   0.273  0.9091  1.4317 -0.8134
16138SOL     OW49833   7.073   4.865   2.081 -0.5910  0.2115  0.2079
16138SOL    HW149834   7.019   4.919   2.024  1.0989  1.8218  0.0450
16138SOL    HW249835   7.010   4.816   2.134 -2.1930  1.5154 -0.4101
16139SOL     OW49836   5.193   7.441   0.800  0.8318 -0.0976  0.3485
16139SOL    HW149837   5.248   7.373   0.840  2.1137  0.5223 -0.3126
16139SOL    HW249838   5.191   7.418   0.707 -0.1014 -0.1464  0.3740
16140SOL     OW49839   5.600   1.655   2.538  0.3751  0.3071 -0.3175
16140SOL    HW149840   5.680   1.604   2.547 -1.1940 -2.2778  0.1180
16140SOL    HW249841   5.560   1.652   2.625 -1.8822 -1.6122 -1.2967
16141SOL     OW49842   1.641   0.377   4.229 -0.4744 -0.0125  0.2367
16141SOL    HW149843   1.711   0.431   4.265  0.2725 -1.4183  0.9687
16141SOL    HW249844   1.596   0.435   4.166  0.0858  1.5229  1.1952
16142SOL     OW49845   3.758   7.362   5.393 -0.2741  0.3453  0.6751
16142SOL    HW149846   3.732   7.331   5.480 -0.0806  1.1152  1.0112
16142SOL    HW249847   3.736   7.289   5.335 -2.2030  0.5214  1.0930
16143SOL     OW49848   1.769   5.464   0.308 -0.1390  0.1508 -0.0087
16143SOL    HW149849   1.820   5.453   0.388  0.3683  1.4392 -0.1285
16143SOL    HW249850   1.745   5.375   0.282  1.7068 -0.4711  0.2739
16144SOL     OW49851   7.561   5.194   7.262  0.4760 -0.1930 -0.3273
16144SOL    HW149852   7.594   5.128   7.323 -1.6897 -1.6537 -0.6265
16144SOL    HW249853   7.591   5.165   7.176 -0.0297 -0.5230 -0.3988
16145SOL     OW49854   0.085   6.623   2.027 -0.3116  0.1341 -0.4928
16145SOL    HW149855   0.048   6.701   2.068 -1.2350  0.3320 -1.6708
16145SOL    HW249856   0.178   6.643   2.017  0.1901 -0.3062  2.3607
16146SOL     OW49857   5.456   2.054   1.369  0.0347  0.1637  0.3681
16146SOL    HW149858   5.410   2.098   1.440 -2.2021 -0.9772 -0.2674
16146SOL    HW249859   5.488   1.972   1.408  0.3105  0.3208  0.4726
16147SOL     OW49860   0.129   4.557   2.518 -0.2266  0.6760  0.4604
16147SOL    HW149861   0.152   4.498   2.590 -2.1085 -0.7238 -0.0133
16147SOL    HW249862   0.081   4.502   2.456 -0.9946  2.4419 -0.5954
16148SOL     OW49863   4.329   7.619   6.836 -0.5108 -0.4432  0.2151
16148SOL    HW149864   4.293   7.533   6.860 -0.1379 -0.6911 -0.1020
16148SOL    HW249865   4.253   7.677   6.836 -1.3452 -1.3923 -2.6025
16149SOL     OW49866   7.023   4.079   5.223 -0.4892  0.8277 -0.1177
16149SOL    HW149867   6.940   4.058   5.180 -0.5655  0.6345  0.1279
16149SOL    HW249868   7.081   4.006   5.200 -1.0011 -0.1083  1.4320
16150SOL     OW49869   6.361   3.717   4.608  0.0789  0.2952  0.0289
16150SOL    HW149870   6.360   3.632   4.652 -2.6876 -0.0733 -0.5965
16150SOL    HW249871   6.429   3.708   4.541 -0.9319 -1.8853 -0.7997
16151SOL     OW49872   3.196   7.260   2.169  0.2560  0.1692  1.0746
16151SOL    HW149873   3.156   7.295   2.249 -0.7590  0.1690  0.5910
16151SOL    HW249874   3.148   7.179   2.152 -0.2648  0.7037 -0.0992
16152SOL     OW49875   6.611   0.110   1.693 -0.0156 -0.4525 -0.3672
16152SOL    HW149876   6.598   0.129   1.600 -0.2563  1.7582  0.0646
16152SOL    HW249877   6.547   0.166   1.738 -0.2572 -1.8606  1.1200
16153SOL     OW49878   3.057   7.832   2.231  0.4742  0.3015 -0.0364
16153SOL    HW149879   3.127   7.788   2.279  1.1047  1.1774 -0.1287
16153SOL    HW249880   3.052   7.919   2.271 -0.0383  0.5123 -0.5439
16154SOL     OW49881   1.086   0.958   5.770 -0.0849  0.1590  0.2015
16154SOL    HW149882   1.036   1.036   5.748  1.9164  1.5397  0.2698
16154SOL    HW249883   1.084   0.954   5.866  1.0960  1.0806  0.2916
16155SOL     OW49884   0.167   5.614   4.421 -0.0128  0.3082  0.4610
16155SOL    HW149885   0.169   5.705   4.393 -2.2584 -0.1230 -1.3748
16155SOL    HW249886   0.209   5.566   4.350 -0.9098 -0.2732  0.2989
16156SOL     OW49887   2.545   6.646   5.234  0.5270  0.1054 -0.7416
16156SOL    HW149888   2.549   6.592   5.313 -1.2762 -0.0566 -0.6988
16156SOL    HW249889   2.574   6.732   5.262  0.1464 -0.0129  0.0558
16157SOL     OW49890   3.936   7.084   7.508  0.2673  0.4634  0.7188
16157SOL    HW149891   3.946   7.177   7.528  1.2967  0.4710  0.2421
16157SOL    HW249892   3.986   7.072   7.428  1.0446 -0.7138  1.3589
16158SOL     OW49893   3.759   6.751   3.565  0.1907  0.0393 -0.1848
16158SOL    HW149894   3.839   6.791   3.600 -0.1881  0.3447  0.3497
16158SOL    HW249895   3.739   6.801   3.486  0.6574 -0.1908 -0.4501
16159SOL     OW49896   6.214   7.638   4.396 -0.6933  0.0052  0.6532
16159SOL    HW149897   6.263   7.698   4.452 -2.1503 -0.0649  2.1027
16159SOL    HW249898   6.169   7.580   4.457 -1.3780 -0.8820 -0.6424
16160SOL     OW49899   4.788   5.273   4.262 -0.1690 -0.0261 -0.1060
16160SOL    HW149900   4.866   5.288   4.210 -0.9091 -0.1824 -1.3012
16160SOL    HW249901   4.756   5.360   4.285 -0.1875  0.0596 -0.4579
16161SOL     OW49902   5.233   3.725   7.763  0.5178  0.3149  0.4509
16161SOL    HW149903   5.251   3.631   7.763  0.7309  0.2896 -2.2694
16161SOL    HW249904   5.316   3.765   7.788  0.4763 -0.1888  1.4522
16162SOL     OW49905   4.325   4.547   3.821  0.5882  0.3350 -0.1948
16162SOL    HW149906   4.403   4.601   3.812  0.6189  0.1907 -0.9056
16162SOL    HW249907   4.254   4.602   3.789 -0.0239  1.3349  2.6058
16163SOL     OW49908   5.832   3.044   2.763  0.4329  0.5379 -0.6186
16163SOL    HW149909   5.901   3.079   2.706  2.9917 -1.5208  1.0066
16163SOL    HW249910   5.844   2.949   2.759  0.8575  0.2778  3.3226
16164SOL     OW49911   5.239   4.597   0.477  0.0269  1.0374  0.1502
16164SOL    HW149912   5.325   4.564   0.451 -0.2720  1.1160 -0.9907
16164SOL    HW249913   5.201   4.526   0.529  1.1310  1.3707  1.4741
16165SOL     OW49914   4.406   7.763   2.380  0.4095 -0.1991  0.5833
16165SOL    HW149915   4.469   7.827   2.413  1.3711 -0.8184  0.0004
16165SOL    HW249916   4.378   7.715   2.458 -1.3315  1.7307  1.2408
16166SOL     OW49917   7.604   4.413   3.563 -0.3822 -0.5273  0.6918
16166SOL    HW149918   7.557   4.330   3.558  2.1137 -2.0431  0.7475
16166SOL    HW249919   7.622   4.437   3.472 -1.9250  0.5028  0.6295
16167SOL     OW49920   6.771   5.706   5.806 -0.0400  0.1199 -0.1895
16167SOL    HW149921   6.741   5.638   5.746  0.9529  0.2058 -0.8085
16167SOL    HW249922   6.762   5.787   5.756  0.0268  0.2866  0.0686
16168SOL     OW49923   3.810   2.224   0.464 -0.3970 -0.0590 -0.3110
16168SOL    HW149924   3.807   2.267   0.379 -0.5160  0.8830  0.1649
16168SOL    HW249925   3.747   2.272   0.518  1.4522  0.9619  1.0430
16169SOL     OW49926   6.489   0.467   3.644 -0.1663 -0.3235 -0.5145
16169SOL    HW149927   6.504   0.487   3.552 -0.2383  0.8635 -0.2791
16169SOL    HW249928   6.413   0.519   3.669  0.3104 -0.0351  0.4043
16170SOL     OW49929   5.430   7.035   2.893 -0.0923  0.4899 -0.3822
16170SOL    HW149930   5.517   7.040   2.854  0.2529 -1.9606 -0.0730
16170SOL    HW249931   5.445   7.046   2.987 -0.2432  0.9527 -0.4090
16171SOL     OW49932   7.519   1.894   1.520  0.0392 -0.3306 -0.2134
16171SOL    HW149933   7.499   1.847   1.601  1.6903 -2.2445 -0.8465
16171SOL    HW249934   7.550   1.827   1.460  1.0573  1.3660 -1.6780
16172SOL     OW49935   2.501   5.091   1.776  0.3439 -0.3312  0.0927
16172SOL    HW149936   2.521   4.998   1.765 -0.8303 -0.5283 -0.5122
16172SOL    HW249937   2.473   5.099   1.867  0.0385 -0.6468  0.0264
16173SOL     OW49938   7.425   4.010   5.033  0.2424 -0.0640 -0.1049
16173SOL    HW149939   7.387   4.000   4.946  1.2409  2.1401 -0.8537
16173SOL    HW249940   7.517   3.986   5.022  1.0486  2.7909 -0.3954
16174SOL     OW49941   4.957   0.338   6.619 -0.3227 -0.7356  0.1139
16174SOL    HW149942   4.903   0.409   6.586  0.2384 -1.4677 -2.6248
16174SOL    HW249943   5.043   0.378   6.635 -0.4568 -0.4779  0.1850
16175SOL     OW49944   2.854   1.427   0.492  0.3681  0.1831 -0.0540
16175SOL    HW149945   2.814   1.419   0.578 -0.0614 -1.3881 -0.3673
16175SOL    HW249946   2.913   1.353   0.486 -0.4965 -0.4250 -1.5540
16176SOL     OW49947   5.771   2.527   5.570  0.7535  0.9891  0.1997
16176SOL    HW149948   5.806   2.522   5.659 -0.2761 -1.2119  0.5359
16176SOL    HW249949   5.716   2.606   5.571 -0.2849  0.2942  1.9382
16177SOL     OW49950   1.172   4.514   5.416  0.3440  0.5083 -0.0671
16177SOL    HW149951   1.249   4.485   5.366  0.2100 -1.7154  0.8941
16177SOL    HW249952   1.108   4.539   5.350  0.6979 -0.9353 -0.9873
16178SOL     OW49953   8.020   1.332   0.377  0.4106  0.2544  0.0223
16178SOL    HW149954   7.966   1.311   0.454  0.2915 -1.4251 -0.4838
16178SOL    HW249955   8.038   1.247   0.337  1.3230  1.0236 -1.2493
16179SOL     OW49956   5.685   7.168   0.991 -0.0894  0.1081 -0.0475
16179SOL    HW149957   5.643   7.254   0.990 -1.5673 -0.5604  0.8458
16179SOL    HW249958   5.614   7.106   0.975  0.3742 -1.1287  2.2398
16180SOL     OW49959   6.868   6.311   5.557 -0.0363 -0.5028 -0.6296
16180SOL    HW149960   6.889   6.401   5.580 -1.8660 -0.3577  0.7301
16180SOL    HW249961   6.772   6.310   5.549 -0.3279 -2.7687  1.7254
16181SOL     OW49962   7.939   7.028   0.497  0.0670  0.6343  0.1541
16181SOL    HW149963   7.962   7.108   0.450 -0.5407  0.9102  0.3204
16181SOL    HW249964   7.935   6.961   0.429 -1.2943  1.1252 -0.2787
16182SOL     OW49965   0.980   7.678   6.412 -0.2112  0.1579  0.7781
16182SOL    HW149966   0.982   7.663   6.318  0.2693 -1.7660  1.0547
16182SOL    HW249967   0.906   7.737   6.425 -0.8782 -0.3057 -0.7086
16183SOL     OW49968   3.700   3.541   2.699  0.3227 -0.7574 -0.3171
16183SOL    HW149969   3.681   3.614   2.759  1.5509 -1.4830  1.0187
16183SOL    HW249970   3.620   3.490   2.698  0.0564 -0.3679  0.1884
16184SOL     OW49971   6.210   3.551   2.334 -0.4127  0.2696 -0.3719
16184SOL    HW149972   6.128   3.572   2.288 -0.6115 -1.8818 -1.1215
16184SOL    HW249973   6.279   3.585   2.277 -0.7291 -0.1851 -1.0401
16185SOL     OW49974   2.925   0.372   3.762  0.1254  0.2373 -0.1957
16185SOL    HW149975   2.927   0.452   3.816 -2.4043  0.4222 -0.2430
16185SOL    HW249976   2.933   0.301   3.825 -0.1266  0.5038  0.1485
16186SOL     OW49977   0.926   2.840   3.570 -0.3394 -0.1029  0.0316
16186SOL    HW149978   0.899   2.754   3.537 -1.8936  0.7397 -1.0855
16186SOL    HW249979   0.893   2.901   3.504  1.3453  1.3208  0.4354
16187SOL     OW49980   3.765   0.593   7.126  0.3197  0.3509  0.0946
16187SOL    HW149981   3.833   0.536   7.162  0.2311  0.5052  0.5065
16187SOL    HW249982   3.733   0.643   7.201 -1.0687 -0.5497  0.1361
16188SOL     OW49983   6.720   5.748   3.988  0.1565 -0.1530 -0.0458
16188SOL    HW149984   6.683   5.809   4.052  1.6321  2.5014 -1.5449
16188SOL    HW249985   6.708   5.661   4.027 -0.0718  1.2258  3.2462
16189SOL     OW49986   2.192   2.359   6.990  0.5391  0.5682 -0.5949
16189SOL    HW149987   2.245   2.282   6.971 -1.3816 -1.0212  0.1669
16189SOL    HW249988   2.175   2.399   6.905  2.0938  0.5649 -0.9346
16190SOL     OW49989   1.435   7.821   7.567  0.0652 -0.3214 -0.1763
16190SOL    HW149990   1.521   7.787   7.592 -0.1141 -0.6606 -0.0082
16190SOL    HW249991   1.414   7.885   7.635  0.8770  0.9507 -1.0689
16191SOL     OW49992   4.180   7.961   0.876  0.0989 -0.2752 -0.0124
16191SOL    HW149993   4.160   8.054   0.888  3.8847  0.6930  0.1789
16191SOL    HW249994   4.155   7.920   0.959  0.5014  1.0582  0.8027
16192SOL     OW49995   6.624   8.040   3.725  0.9297  0.3163  0.3289
16192SOL    HW149996   6.600   8.119   3.773 -0.4569 -0.3781  0.8491
16192SOL    HW249997   6.568   7.972   3.762  1.8176 -0.8332 -0.3718
16193SOL     OW49998   2.240   3.996   3.442 -0.3319 -0.2271 -0.0045
16193SOL    HW149999   2.270   3.945   3.517  1.1213 -1.0469 -1.0901
16193SOL    HW250000   2.230   3.932   3.371 -0.5383  0.6869 -0.8358
16194SOL     OW50001   2.918   7.077   3.871 -0.2849  0.0972  0.2833
16194SOL    HW150002   2.886   7.034   3.792  1.9534 -1.5949  0.1930
16194SOL    HW250003   2.964   7.155   3.838 -0.1068 -0.1355 -0.0313
16195SOL     OW50004   4.822   2.122   4.169 -0.1875  0.0036 -0.1526
16195SOL    HW150005   4.841   2.203   4.122  0.5864  1.5905  2.6704
16195SOL    HW250006   4.727   2.122   4.181 -0.4042 -0.4498 -1.6297
16196SOL     OW50007   7.068   6.285   2.257  0.6021  0.3694 -0.2595
16196SOL    HW150008   7.137   6.219   2.256 -0.5069 -0.8506 -1.9304
16196SOL    HW250009   6.999   6.245   2.311  0.2246  0.4942 -0.6484
16197SOL     OW50010   0.428   4.148   2.085 -0.0225 -0.0113  0.2175
16197SOL    HW150011   0.380   4.080   2.133 -1.0427  0.5211 -0.0074
16197SOL    HW250012   0.372   4.226   2.093 -0.2253  0.1082 -1.7973
16198SOL     OW50013   2.425   2.220   3.356 -0.1884 -0.0829 -0.1656
16198SOL    HW150014   2.480   2.217   3.277  0.4882 -1.0688  0.3188
16198SOL    HW250015   2.460   2.293   3.407  1.3372 -1.2785  0.5780
16199SOL     OW50016   5.785   5.531   5.990 -0.2051  0.5393  0.0754
16199SOL    HW150017   5.810   5.491   5.907 -0.3954  0.3488  0.1092
16199SOL    HW250018   5.836   5.612   5.994  2.0360 -0.8635  1.1344
16200SOL     OW50019   0.063   5.092   4.414  0.4453 -0.0386 -0.1748
16200SOL    HW150020   0.061   5.138   4.498 -0.3732  0.9887 -0.7239
16200SOL    HW250021   0.116   5.014   4.430 -0.0887 -0.1066  1.4068
16201SOL     OW50022   3.378   5.749   1.286 -0.0290  0.0683 -0.7820
16201SOL    HW150023   3.323   5.816   1.245  0.6525  1.3478  0.3050
16201SOL    HW250024   3.361   5.759   1.380 -1.1523 -2.4240 -0.6456
16202SOL     OW50025   2.386   4.339   4.748  0.3993  0.0398 -0.3115
16202SOL    HW150026   2.309   4.286   4.763 -1.5688  2.9703  0.8347
16202SOL    HW250027   2.398   4.388   4.830  1.3616  2.1330 -1.6099
16203SOL     OW50028   3.287   1.833   6.930 -0.3494 -0.1082  0.1931
16203SOL    HW150029   3.364   1.777   6.939 -1.0570 -1.1349 -0.0420
16203SOL    HW250030   3.311   1.895   6.860 -0.3355 -1.4793 -1.0667
16204SOL     OW50031   0.567   0.344   4.799  0.7823 -0.6660 -0.3864
16204SOL    HW150032   0.608   0.311   4.719 -0.1298 -3.3028  0.1260
16204SOL    HW250033   0.638   0.387   4.847  2.0261 -1.6383 -1.2987
16205SOL     OW50034   4.641   1.325   3.918 -0.1560 -0.2544 -0.0873
16205SOL    HW150035   4.597   1.394   3.869 -0.7421  0.1445  0.9724
16205SOL    HW250036   4.570   1.275   3.958  0.3152 -0.4826  0.4754
16206SOL     OW50037   5.207   4.365   0.614 -0.2667 -0.0272 -0.0641
16206SOL    HW150038   5.278   4.312   0.652 -1.0793 -0.4156  0.9762
16206SOL    HW250039   5.171   4.413   0.688 -1.2304 -0.0049 -0.5314
16207SOL     OW50040   5.312   5.402   0.366 -0.2995 -0.3560  0.2759
16207SOL    HW150041   5.238   5.371   0.314 -0.2356  1.7360 -1.1540
16207SOL    HW250042   5.387   5.396   0.307  0.2270 -0.1940  0.9175
16208SOL     OW50043   5.812   4.158   6.481 -0.1771 -0.0487 -0.4798
16208SOL    HW150044   5.720   4.135   6.467 -1.0234  2.3981  0.4732
16208SOL    HW250045   5.830   4.129   6.571 -0.2271  0.0270 -0.4446
16209SOL     OW50046   2.243   3.512   7.888 -0.0514 -0.0807  0.3895
16209SOL    HW150047   2.209   3.423   7.885 -1.8297  0.5777 -1.1617
16209SOL    HW250048   2.238   3.537   7.980 -1.9573 -0.7291  0.5033
16210SOL     OW50049   5.815   4.507   4.113  0.0337 -0.6137  0.0060
16210SOL    HW150050   5.878   4.479   4.047 -1.1493  0.1881 -1.5234
16210SOL    HW250051   5.774   4.427   4.144 -1.4031 -0.8579 -2.3420
16211SOL     OW50052   4.987   2.821   2.661 -0.3284  0.3484  0.3762
16211SOL    HW150053   4.974   2.727   2.673 -0.4063  0.5601  2.3044
16211SOL    HW250054   5.028   2.829   2.575  0.0603 -1.4863  0.3497
16212SOL     OW50055   7.272   0.326   4.599  0.4863  0.2013  0.1250
16212SOL    HW150056   7.308   0.393   4.656  1.0771  1.9819 -2.1757
16212SOL    HW250057   7.280   0.245   4.649  2.0224  1.4735  2.0857
16213SOL     OW50058   2.292   2.889   5.835 -0.1177  0.3166 -0.4936
16213SOL    HW150059   2.280   2.970   5.786  0.0655  0.2231 -0.6926
16213SOL    HW250060   2.234   2.826   5.792 -0.9125  0.5674  0.1953
16214SOL     OW50061   4.698   3.396   5.754  0.3595 -0.0763 -0.0194
16214SOL    HW150062   4.680   3.490   5.756  0.6512 -0.0240  0.2607
16214SOL    HW250063   4.747   3.383   5.672 -0.1242 -0.0677 -0.3102
16215SOL     OW50064   0.806   3.745   2.688  0.1538  0.4206 -0.2005
16215SOL    HW150065   0.851   3.764   2.606 -0.4683  0.5623 -0.5201
16215SOL    HW250066   0.715   3.770   2.671 -0.7179 -2.6432 -0.5793
16216SOL     OW50067   3.066   6.094   8.046 -0.3580  0.5550  0.7558
16216SOL    HW150068   2.970   6.087   8.046 -0.3303 -0.0716 -0.6612
16216SOL    HW250069   3.085   6.171   7.992 -0.0328 -0.5149 -0.7242
16217SOL     OW50070   7.464   7.209   6.773 -0.2063 -0.1050  0.2471
16217SOL    HW150071   7.385   7.182   6.820 -0.1559  0.2625  0.5477
16217SOL    HW250072   7.434   7.228   6.684 -0.7465  1.4623  0.7243
16218SOL     OW50073   5.093   4.643   6.807 -0.1428  0.4005  0.4161
16218SOL    HW150074   5.178   4.687   6.795 -0.6193  0.6842 -2.6590
16218SOL    HW250075   5.032   4.714   6.828 -0.3493  0.8948 -1.6177
16219SOL     OW50076   5.230   4.168   3.839  0.0150  0.3511 -0.5961
16219SOL    HW150077   5.189   4.169   3.926  0.7613 -0.1501 -0.2229
16219SOL    HW250078   5.197   4.247   3.796  0.5405  1.2535  0.5795
16220SOL     OW50079   2.944   2.053   4.374  0.1697 -0.4549  0.5692
16220SOL    HW150080   2.878   2.078   4.308 -0.1580 -0.3345  0.9393
16220SOL    HW250081   2.966   1.962   4.352  0.1478 -0.3765  0.2195
16221SOL     OW50082   0.635   6.808   0.511 -0.0630  0.1142 -0.0711
16221SOL    HW150083   0.546   6.830   0.539  0.1811 -0.0144  0.8582
16221SOL    HW250084   0.644   6.847   0.425 -0.2225  2.1912  0.7973
16222SOL     OW50085   5.485   4.258   4.474 -0.4395  0.3790  0.1196
16222SOL    HW150086   5.466   4.167   4.451 -1.3591  0.6939 -0.4106
16222SOL    HW250087   5.415   4.309   4.433 -1.2879  1.1326  2.3383
16223SOL     OW50088   5.937   2.598   5.848  0.2125  0.1240  0.4638
16223SOL    HW150089   5.848   2.620   5.876  0.1647 -1.0462  1.3059
16223SOL    HW250090   5.984   2.579   5.929  2.4333  4.5266  0.5485
16224SOL     OW50091   4.031   7.932   4.328 -0.4484  0.1144 -0.1784
16224SOL    HW150092   4.040   7.932   4.424 -1.7010 -0.1349 -0.0474
16224SOL    HW250093   4.071   7.849   4.301 -0.3552  0.0455  0.1591
16225SOL     OW50094   7.595   6.233   8.026 -0.6645  0.3532  0.1000
16225SOL    HW150095   7.564   6.262   7.940 -1.3413 -0.1747  0.1649
16225SOL    HW250096   7.670   6.177   8.007  0.9889  2.4560 -0.0166
16226SOL     OW50097   3.638   0.545   4.154 -0.1531 -0.4114  0.3287
16226SOL    HW150098   3.554   0.556   4.200  0.0358  2.4683  0.1391
16226SOL    HW250099   3.614   0.539   4.062 -0.2176 -1.4541  0.3947
16227SOL     OW50100   7.613   4.644   0.005  0.2811 -0.0399 -0.3753
16227SOL    HW150101   7.673   4.600  -0.055  0.7756 -0.9998  0.7641
16227SOL    HW250102   7.663   4.718   0.039  0.8607 -0.8216  0.5494
16228SOL     OW50103   6.302   3.332   2.740 -0.8255  0.3366 -0.0649
16228SOL    HW150104   6.287   3.263   2.805 -2.2794  1.0711  0.4245
16228SOL    HW250105   6.397   3.346   2.741  0.1575 -4.0961 -2.7688
16229SOL     OW50106   6.645   7.677   7.541  0.4668  0.3629 -0.4279
16229SOL    HW150107   6.670   7.707   7.454  0.0284  1.4352 -0.2007
16229SOL    HW250108   6.560   7.719   7.557  0.1050 -0.5537  0.1487
16230SOL     OW50109   7.672   4.484   7.154  0.2597 -0.8405 -0.3369
16230SOL    HW150110   7.759   4.525   7.151 -0.2267  0.1848 -2.5590
16230SOL    HW250111   7.686   4.396   7.120  0.0066  0.5093 -4.6283
16231SOL     OW50112   4.456   7.994   4.842  0.1023  0.1996 -0.0630
16231SOL    HW150113   4.405   8.018   4.765 -2.2885 -0.2710  1.2680
16231SOL    HW250114   4.507   8.072   4.862  1.8304 -0.1066 -2.8314
16232SOL     OW50115   3.188   1.184   6.592  0.1369 -0.3502 -0.7338
16232SOL    HW150116   3.270   1.137   6.612 -0.6404 -1.5773 -0.3151
16232SOL    HW250117   3.145   1.129   6.527 -0.0869  0.6101 -1.4139
16233SOL     OW50118   0.791   5.586   0.848  0.2247  0.7927  0.3766
16233SOL    HW150119   0.867   5.625   0.892 -0.5386  2.3954  0.3237
16233SOL    HW250120   0.728   5.657   0.841 -1.7901 -0.8023  1.4901
16234SOL     OW50121   3.039   5.167   5.786 -0.2597  0.2524  0.0456
16234SOL    HW150122   2.992   5.229   5.841  1.8470 -0.9369  3.4626
16234SOL    HW250123   3.127   5.204   5.778  0.6709 -1.6371  1.1011
16235SOL     OW50124   5.103   1.988   2.909 -0.0010 -0.2334 -0.0178
16235SOL    HW150125   5.018   2.029   2.892  1.1709  1.5320 -2.1424
16235SOL    HW250126   5.137   2.034   2.986 -0.6984 -0.5460  0.4871
16236SOL     OW50127   7.793   2.675   0.499 -0.5881 -0.2276 -0.0375
16236SOL    HW150128   7.782   2.659   0.593 -2.1065 -0.2724 -0.2026
16236SOL    HW250129   7.810   2.589   0.462 -1.0527 -0.3686  0.0688
16237SOL     OW50130   4.843   5.179   3.263  0.0126  0.4472 -0.6932
16237SOL    HW150131   4.853   5.163   3.357  0.3635  2.1421 -0.4126
16237SOL    HW250132   4.931   5.167   3.227  0.3189  1.7782 -0.4504
16238SOL     OW50133   7.521   7.659   4.345  0.3663  0.0965 -0.3223
16238SOL    HW150134   7.544   7.752   4.349  0.0678  0.1949 -0.8309
16238SOL    HW250135   7.589   7.620   4.289 -0.4187  0.3148 -1.4841
16239SOL     OW50136   6.947   0.089   0.897  0.1558  0.1357 -0.0099
16239SOL    HW150137   6.974   0.133   0.977  0.9116  0.7582 -0.5808
16239SOL    HW250138   6.967  -0.003   0.911  2.1600  0.4852 -0.1864
16240SOL     OW50139   2.757   3.296   1.400  0.1480  0.1660 -0.3138
16240SOL    HW150140   2.804   3.245   1.467 -0.9630  0.6539  0.8952
16240SOL    HW250141   2.793   3.266   1.317  0.0135 -2.1366  0.3799
16241SOL     OW50142   6.492   1.403   5.444 -0.6646 -0.4718 -0.7936
16241SOL    HW150143   6.453   1.360   5.520  1.0595 -0.6767  0.0386
16241SOL    HW250144   6.435   1.478   5.427 -0.4466  0.2916  1.5008
16242SOL     OW50145   6.227   2.418   7.902  0.0232 -0.2854  0.7592
16242SOL    HW150146   6.238   2.431   7.807 -2.0457  1.8787  0.7347
16242SOL    HW250147   6.265   2.497   7.941  0.4575 -0.9586  1.7420
16243SOL     OW50148   4.784   1.099   3.058  0.3762 -0.3240 -0.1286
16243SOL    HW150149   4.829   1.055   2.986  0.1107 -0.9926  0.1025
16243SOL    HW250150   4.749   1.027   3.112  0.2944  0.1658  0.4870
16244SOL     OW50151   5.186   5.224   2.302  0.1844 -0.2423  0.0478
16244SOL    HW150152   5.092   5.208   2.292  0.3047 -0.3526 -1.0339
16244SOL    HW250153   5.216   5.154   2.360 -0.0288 -1.5031 -1.3256
16245SOL     OW50154   6.286   1.655   2.045 -0.0996  0.6606 -0.2520
16245SOL    HW150155   6.265   1.630   1.955 -0.2527  0.6692 -0.2191
16245SOL    HW250156   6.230   1.730   2.062 -0.4822  0.3120  0.0414
16246SOL     OW50157   2.642   2.841   8.043 -0.2502  0.0488  0.1246
16246SOL    HW150158   2.610   2.877   7.960 -0.4520 -2.9274 -1.2038
16246SOL    HW250159   2.614   2.905   8.108 -2.2538  1.3287 -1.8188
16247SOL     OW50160   7.710   5.660   4.748  0.4645  0.2631 -0.6323
16247SOL    HW150161   7.664   5.714   4.684 -0.5326  1.1231  0.7313
16247SOL    HW250162   7.659   5.672   4.829  1.9431 -0.3865  0.4307
16248SOL     OW50163   1.235   7.519   3.676 -0.4439  0.3112 -0.2890
16248SOL    HW150164   1.167   7.473   3.725 -0.2910 -0.0644 -0.4313
16248SOL    HW250165   1.234   7.479   3.589  0.7221 -0.4799  0.0385
16249SOL     OW50166   5.783   5.124   6.042  0.3658 -0.3323  0.4793
16249SOL    HW150167   5.877   5.107   6.055  0.1234 -2.2876  0.0535
16249SOL    HW250168   5.762   5.080   5.960 -1.1280 -0.8554  1.1019
16250SOL     OW50169   1.571   4.884   0.556 -0.2452 -0.1536  0.3141
16250SOL    HW150170   1.540   4.953   0.613  0.3449 -0.6114  1.2084
16250SOL    HW250171   1.665   4.878   0.575  0.3195  0.7692 -1.8505
16251SOL     OW50172   3.338   7.670   4.812 -0.2303  0.3812  0.1882
16251SOL    HW150173   3.273   7.739   4.805 -0.2015  0.4169  0.2726
16251SOL    HW250174   3.296   7.602   4.864 -0.5790 -0.0394 -0.6140
16252SOL     OW50175   7.799   0.952   7.082  0.2688  0.2877  0.1266
16252SOL    HW150176   7.797   0.996   7.167 -1.8551  0.2243  0.1660
16252SOL    HW250177   7.869   0.888   7.090  0.9242  1.1097  1.3871
16253SOL     OW50178   3.703   3.392   7.576  0.7146  0.1304  0.0324
16253SOL    HW150179   3.712   3.315   7.521 -0.8089  0.6244 -0.9856
16253SOL    HW250180   3.650   3.453   7.524 -2.4828 -0.0703  2.6646
16254SOL     OW50181   2.610   3.656   5.554  0.0238  0.1038  0.1875
16254SOL    HW150182   2.648   3.666   5.466 -0.2444 -0.2936  0.0237
16254SOL    HW250183   2.516   3.647   5.539  0.0023 -0.1948  0.5010
16255SOL     OW50184   1.121   5.856   2.955 -0.3497 -0.4889 -0.1187
16255SOL    HW150185   1.072   5.790   2.906  1.9434 -1.3844 -1.3535
16255SOL    HW250186   1.074   5.937   2.939 -0.1705 -0.8674 -3.2843
16256SOL     OW50187   0.841   2.603   4.689 -0.4225  0.2399  0.7140
16256SOL    HW150188   0.800   2.575   4.771 -0.8351  1.0850  0.8052
16256SOL    HW250189   0.914   2.543   4.677 -1.0908 -0.6636  1.0668
16257SOL     OW50190   3.769   1.768   7.310 -0.0808 -0.1332  0.0423
16257SOL    HW150191   3.762   1.692   7.367  1.3993  0.0024  0.4564
16257SOL    HW250192   3.703   1.755   7.242 -1.9568 -0.2546  1.8184
16258SOL     OW50193   4.605   7.317   7.046 -0.4195  0.2099 -0.0700
16258SOL    HW150194   4.621   7.403   7.084 -0.1680  1.1202 -2.0993
16258SOL    HW250195   4.606   7.332   6.952  1.0960 -2.2788 -0.5344
16259SOL     OW50196   6.967   1.133   7.753 -0.6174 -0.2748  0.5496
16259SOL    HW150197   6.893   1.155   7.808 -0.2938  0.7916  0.5699
16259SOL    HW250198   6.930   1.073   7.687 -2.2172  2.4142 -1.2119
16260SOL     OW50199   0.673   1.577   2.236 -0.4595 -0.8566  0.7379
16260SOL    HW150200   0.724   1.642   2.188  0.2815 -1.6312  0.4659
16260SOL    HW250201   0.609   1.629   2.286  0.0324  0.0666  0.4230
16261SOL     OW50202   5.593   6.614   2.596  0.1368  0.0321  0.0085
16261SOL    HW150203   5.606   6.669   2.673  1.5657  0.2819 -0.3739
16261SOL    HW250204   5.555   6.533   2.630 -0.4985  0.6483  0.7875
16262SOL     OW50205   1.853   7.128   7.142 -0.6490 -0.7326  0.2854
16262SOL    HW150206   1.845   7.204   7.199  3.4712  0.1416  0.0194
16262SOL    HW250207   1.832   7.162   7.055 -2.5067 -0.9505  0.6012
16263SOL     OW50208   2.878   4.105   0.217 -0.2583 -0.4365  0.2677
16263SOL    HW150209   2.901   4.013   0.204  1.0978  0.0519 -1.1871
16263SOL    HW250210   2.930   4.152   0.152 -0.6700  1.4049  1.1935
16264SOL     OW50211   1.828   5.305   1.152 -0.1306  0.4285 -0.3168
16264SOL    HW150212   1.775   5.362   1.096  1.4801 -0.3243 -2.8017
16264SOL    HW250213   1.811   5.335   1.241 -2.0079  2.4445 -1.2743
16265SOL     OW50214   6.459   0.045   4.203 -0.0039 -0.1268  0.0892
16265SOL    HW150215   6.473   0.104   4.277 -0.3168  0.4375 -0.2891
16265SOL    HW250216   6.530  -0.019   4.209  0.4706  0.4176  0.3868
16266SOL     OW50217   2.691   7.805   7.250 -0.3010 -0.0381  0.2710
16266SOL    HW150218   2.636   7.727   7.253  0.0570 -0.3202 -0.3628
16266SOL    HW250219   2.767   7.779   7.198  0.9620  0.0249  1.9871
16267SOL     OW50220   6.580   1.792   0.043  0.0459 -0.2093  0.0262
16267SOL    HW150221   6.654   1.737   0.068  0.6041  0.7592  0.5761
16267SOL    HW250222   6.619   1.862  -0.009 -0.9529 -1.5505 -2.6744
16268SOL     OW50223   4.344   0.840   3.320 -0.1592  0.0652  0.3729
16268SOL    HW150224   4.299   0.757   3.334 -1.8118  0.9212  0.4224
16268SOL    HW250225   4.319   0.894   3.396  3.2050 -0.2668  1.9083
16269SOL     OW50226   6.542   4.927   7.351 -0.4831 -0.2010  0.1105
16269SOL    HW150227   6.578   5.015   7.342  1.4597 -0.9224  0.3996
16269SOL    HW250228   6.545   4.910   7.446 -1.4708 -0.3385  0.1243
16270SOL     OW50229   2.722   3.686   5.283 -0.0557  0.1614 -0.1059
16270SOL    HW150230   2.763   3.687   5.197 -1.8110  1.4951 -0.9980
16270SOL    HW250231   2.638   3.730   5.270 -1.3966 -1.6113  1.8005
16271SOL     OW50232   2.396   3.698   6.045  0.6464 -0.0765 -0.5406
16271SOL    HW150233   2.414   3.790   6.063 -0.5142 -0.0145  0.4080
16271SOL    HW250234   2.480   3.654   6.055  1.0613  0.7698 -0.2618
16272SOL     OW50235   7.619   4.263   1.168  0.0832 -0.3307  0.4240
16272SOL    HW150236   7.679   4.194   1.195  1.7750  1.0098  0.2421
16272SOL    HW250237   7.646   4.285   1.079 -3.3065 -2.4261 -1.3834
16273SOL     OW50238   0.563   7.269   1.321 -0.7118 -0.5929 -0.4653
16273SOL    HW150239   0.654   7.243   1.311 -0.1172  1.4974 -0.7854
16273SOL    HW250240   0.545   7.326   1.246 -1.8209  0.2395  0.3956
16274SOL     OW50241   7.344   2.369   5.634 -0.2100  0.0062  0.0287
16274SOL    HW150242   7.312   2.407   5.715 -1.8812  1.4327 -1.2163
16274SOL    HW250243   7.297   2.416   5.565  2.4936  0.1959 -1.8743
16275SOL     OW50244   6.087   3.235   5.336  0.2587  0.4801 -0.3258
16275SOL    HW150245   6.116   3.219   5.425 -1.3867 -2.9567 -0.2387
16275SOL    HW250246   6.089   3.149   5.294 -1.0572  1.6043 -2.9488
16276SOL     OW50247   3.869   5.359   2.015 -0.7415  0.6807  0.1680
16276SOL    HW150248   3.779   5.389   2.000 -0.5343  0.0589 -3.1904
16276SOL    HW250249   3.923   5.428   1.977  0.0227 -0.3234 -0.6427
16277SOL     OW50250   6.124   7.529   7.000 -0.1246 -0.2306 -0.5872
16277SOL    HW150251   6.101   7.536   7.093  0.0094  0.5875 -0.6044
16277SOL    HW250252   6.042   7.543   6.953 -0.1652 -0.4966 -0.5959
16278SOL     OW50253   1.372   5.754   2.956  0.2091 -0.0562  0.4072
16278SOL    HW150254   1.290   5.802   2.942  0.3374 -0.1510 -0.7729
16278SOL    HW250255   1.440   5.822   2.951  0.4699 -0.3822 -2.1524
16279SOL     OW50256   1.433   1.597   4.065 -0.1368  0.2660 -0.0084
16279SOL    HW150257   1.403   1.653   4.137  1.9861 -0.3587  1.4728
16279SOL    HW250258   1.401   1.510   4.089  1.6070 -0.1662  0.8982
16280SOL     OW50259   1.167   5.819   3.212 -0.2203 -0.3862  0.5949
16280SOL    HW150260   1.145   5.860   3.128 -0.1206  1.5818  1.4759
16280SOL    HW250261   1.199   5.732   3.189  0.4781  0.3652 -1.4645
16281SOL     OW50262   7.305   2.071   3.371 -0.3796  0.2904  0.0119
16281SOL    HW150263   7.397   2.053   3.393 -0.3064  0.9792  0.2984
16281SOL    HW250264   7.299   2.053   3.277 -0.2894 -1.0888  0.2541
16282SOL     OW50265   1.299   0.165   1.803 -0.2087  0.4672  0.4831
16282SOL    HW150266   1.348   0.242   1.775 -0.5579  0.6810  0.4554
16282SOL    HW250267   1.355   0.124   1.870  0.8418 -0.2998 -0.8152
16283SOL     OW50268   5.189   7.695   4.995 -0.4520  0.3943 -0.2273
16283SOL    HW150269   5.261   7.734   5.045 -0.9467  0.8431  0.1573
16283SOL    HW250270   5.219   7.607   4.974  0.2875  0.6421 -0.2428
16284SOL     OW50271   0.678   5.892   2.992  0.0827  0.1160 -0.4763
16284SOL    HW150272   0.735   5.961   2.960 -0.0587 -0.2050 -1.4704
16284SOL    HW250273   0.640   5.927   3.073  2.0323  0.1378  0.4797
16285SOL     OW50274   1.063   3.837   6.253  0.2356  0.2574 -0.0073
16285SOL    HW150275   1.068   3.743   6.271  0.0939  0.1157 -0.6878
16285SOL    HW250276   1.121   3.851   6.178  1.7370  1.0333  1.2385
16286SOL     OW50277   2.247   0.692   5.835  0.3373 -0.3762  0.0987
16286SOL    HW150278   2.289   0.660   5.755 -1.0791  3.8503 -2.7309
16286SOL    HW250279   2.316   0.739   5.881  0.2195  1.4231 -1.4155
16287SOL     OW50280   6.247   2.759   2.181  0.4453  0.0308  0.1854
16287SOL    HW150281   6.258   2.816   2.256 -1.1480 -1.8415  1.9693
16287SOL    HW250282   6.152   2.752   2.169  0.6083 -1.3198 -0.6826
16288SOL     OW50283   3.276   1.664   4.863  0.7667 -0.0240  1.1185
16288SOL    HW150284   3.319   1.742   4.895  2.6710 -1.3959  2.1008
16288SOL    HW250285   3.253   1.614   4.941 -0.3547 -0.5088  0.5158
16289SOL     OW50286   7.230   0.757   6.496 -0.4829  0.2601 -0.1495
16289SOL    HW150287   7.181   0.839   6.504  0.5010  0.7764  0.9763
16289SOL    HW250288   7.194   0.701   6.564 -0.9378 -0.1440 -0.7124
16290SOL     OW50289   5.781   7.218   6.353  0.3294 -0.5093 -0.4763
16290SOL    HW150290   5.757   7.128   6.376 -0.6315  0.1025  1.1257
16290SOL    HW250291   5.854   7.238   6.412  1.0448 -0.4713 -1.3585
16291SOL     OW50292   6.770   1.229   3.664  0.3545 -0.0109 -0.1905
16291SOL    HW150293   6.840   1.190   3.716 -0.1728 -0.7478 -0.0208
16291SOL    HW250294   6.750   1.311   3.710  1.3684  0.4068 -0.4729
16292SOL     OW50295   7.791   5.121   0.581 -0.1618  0.1314 -0.3672
16292SOL    HW150296   7.729   5.074   0.636 -0.0959  1.6865  1.0945
16292SOL    HW250297   7.736   5.174   0.522 -0.2669  1.0777  0.5486
16293SOL     OW50298   6.743   0.953   7.934  0.6109  0.1732 -0.5441
16293SOL    HW150299   6.656   0.949   7.974 -0.3206 -0.6430 -2.4784
16293SOL    HW250300   6.791   0.880   7.973  0.2306  0.2591  0.0950
16294SOL     OW50301   6.318   4.521   3.629 -0.3367  0.0404 -0.0969
16294SOL    HW150302   6.326   4.526   3.533 -0.8454 -0.2760 -0.1607
16294SOL    HW250303   6.386   4.580   3.662  0.6257 -0.7611 -0.6311
16295SOL     OW50304   0.961   2.221   3.572  0.0484 -0.0589  0.0806
16295SOL    HW150305   1.021   2.296   3.575  1.0466 -0.7878 -0.8163
16295SOL    HW250306   0.953   2.202   3.478 -1.1090 -0.3653  0.2323
16296SOL     OW50307   2.104   1.509   3.812  0.2439  0.0860 -0.2874
16296SOL    HW150308   2.117   1.549   3.898 -1.4463 -0.8965  0.4720
16296SOL    HW250309   2.165   1.435   3.811 -0.0572 -0.1759  0.2743
16297SOL     OW50310   5.233   6.810   1.526 -0.7318  0.1890  0.2653
16297SOL    HW150311   5.294   6.779   1.458 -1.9401  1.8384 -1.6814
16297SOL    HW250312   5.172   6.867   1.479 -1.4218  1.7196  2.8227
16298SOL     OW50313   1.377   7.468   6.678  0.4841 -0.1055  0.0938
16298SOL    HW150314   1.329   7.489   6.598  0.1580 -1.9286 -0.2102
16298SOL    HW250315   1.310   7.459   6.746  0.6162 -0.3098  0.1968
16299SOL     OW50316   3.304   1.740   7.252  0.5017 -0.3061 -0.7562
16299SOL    HW150317   3.284   1.717   7.343  0.4945 -0.2980 -0.7560
16299SOL    HW250318   3.226   1.787   7.221  0.4933 -0.3324 -0.7751
16300SOL     OW50319   6.840   6.193   4.730  0.0569 -0.3899  1.0170
16300SOL    HW150320   6.756   6.184   4.684  0.2462  0.2841  0.5296
16300SOL    HW250321   6.831   6.135   4.806 -0.6210 -0.7865  0.6489
16301SOL     OW50322   6.252   1.015   3.802  0.2071 -0.3331 -0.6028
16301SOL    HW150323   6.288   1.090   3.754  0.2379  0.6624  0.9017
16301SOL    HW250324   6.280   1.030   3.893 -0.4490 -1.7742 -0.1445
16302SOL     OW50325   1.659   2.437   3.792 -0.7207 -0.5853 -0.0007
16302SOL    HW150326   1.660   2.412   3.885  1.8585 -0.1200  0.1755
16302SOL    HW250327   1.586   2.499   3.785 -1.5905 -1.3731  1.4691
16303SOL     OW50328   0.609   0.537   0.017  0.3590 -0.1300 -0.7024
16303SOL    HW150329   0.558   0.477  -0.038  0.5140 -0.3167 -0.6449
16303SOL    HW250330   0.561   0.620   0.013  0.5973 -0.0279 -1.4497
16304SOL     OW50331   1.855   3.123   6.946  0.0639 -0.4360 -0.8216
16304SOL    HW150332   1.935   3.112   6.998  1.1948  1.3820 -2.0427
16304SOL    HW250333   1.887   3.142   6.858 -1.6895  0.7227 -1.2583
16305SOL     OW50334   1.119   1.252   2.643 -0.3525 -0.3520 -0.2225
16305SOL    HW150335   1.152   1.340   2.665 -0.9332 -0.4856  1.3318
16305SOL    HW250336   1.102   1.256   2.549 -1.3702  1.5612 -0.0212
16306SOL     OW50337   7.703   2.952   0.160  0.0851 -0.1975 -0.0056
16306SOL    HW150338   7.607   2.958   0.162  0.0830  0.4798  2.9217
16306SOL    HW250339   7.721   2.866   0.123 -1.6022  0.0072 -1.4251
16307SOL     OW50340   4.285   2.664   1.781 -0.2469 -0.1176 -0.0802
16307SOL    HW150341   4.199   2.705   1.773 -0.9469 -1.8057 -1.8637
16307SOL    HW250342   4.340   2.710   1.718 -0.2983 -0.1405 -0.1420
16308SOL     OW50343   4.122   7.447   3.614 -0.2614 -0.1344  0.3264
16308SOL    HW150344   4.203   7.479   3.653  0.1801 -0.5346 -0.2511
16308SOL    HW250345   4.083   7.391   3.681  0.1785 -0.3223  0.4268
16309SOL     OW50346   4.694   1.415   6.324  0.0478 -0.5091 -0.4780
16309SOL    HW150347   4.761   1.433   6.258  0.2868  1.6482  0.2965
16309SOL    HW250348   4.723   1.463   6.401 -1.5465 -0.8940  0.3980
16310SOL     OW50349   5.354   2.792   0.790 -0.0018 -0.5005 -0.2648
16310SOL    HW150350   5.296   2.716   0.786  1.7243 -1.8289 -2.3802
16310SOL    HW250351   5.379   2.808   0.699 -0.1565  2.5779  0.1035
16311SOL     OW50352   6.783   3.815   6.451 -0.6956  0.2972 -0.5252
16311SOL    HW150353   6.707   3.789   6.399 -0.4173 -2.6284  0.3241
16311SOL    HW250354   6.855   3.763   6.416 -0.2655 -0.9348  1.9203
16312SOL     OW50355   4.076   3.019   5.286  0.2534  0.0804 -0.3795
16312SOL    HW150356   4.142   3.083   5.310 -0.9967  1.5587 -0.7275
16312SOL    HW250357   4.009   3.026   5.354 -0.1690 -0.4578 -0.7281
16313SOL     OW50358   3.750   1.526   0.045  0.5770 -0.6358 -0.3591
16313SOL    HW150359   3.685   1.557   0.108  0.8029  0.9443 -0.8519
16313SOL    HW250360   3.702   1.464  -0.011 -0.4794  0.3619 -0.5937
16314SOL     OW50361   5.236   7.644   5.507 -0.6735  0.5054  0.8208
16314SOL    HW150362   5.298   7.592   5.455 -0.4602  1.0766  0.4828
16314SOL    HW250363   5.291   7.712   5.547 -1.0730  0.9685  0.5832
16315SOL     OW50364   5.670   3.968   6.937 -0.2192  0.4541 -0.3232
16315SOL    HW150365   5.651   3.877   6.914 -0.8880  1.0292 -2.2721
16315SOL    HW250366   5.614   3.987   7.013  0.8911 -1.0928  0.9382
16316SOL     OW50367   7.512   5.394   1.219 -0.0971 -0.0635 -0.0467
16316SOL    HW150368   7.460   5.473   1.203  0.0997 -0.2288 -1.6739
16316SOL    HW250369   7.590   5.406   1.166  0.5946 -0.7364  0.7872
16317SOL     OW50370   6.820   1.746   1.888 -0.2693 -0.4010  0.3370
16317SOL    HW150371   6.862   1.673   1.933  0.5437  0.3522  0.8362
16317SOL    HW250372   6.731   1.748   1.923 -0.4736 -1.4903 -0.0985
16318SOL     OW50373   2.455   6.156   5.025  0.6587  0.0938 -0.6982
16318SOL    HW150374   2.536   6.139   5.073 -0.8630 -0.1147  1.9786
16318SOL    HW250375   2.443   6.251   5.031  0.0890 -0.0147  0.0467
16319SOL     OW50376   6.353   2.635   4.748  0.9132  0.0283  0.0954
16319SOL    HW150377   6.336   2.678   4.664  0.1709 -1.3749 -0.4932
16319SOL    HW250378   6.434   2.586   4.734  1.2365  0.4394  0.4735
16320SOL     OW50379   0.255   4.260   0.722  0.4081 -0.5213 -0.4407
16320SOL    HW150380   0.171   4.263   0.677  0.9035 -0.3038 -1.3845
16320SOL    HW250381   0.251   4.331   0.786 -0.4731 -1.1098  0.1880
16321SOL     OW50382   7.295   7.263   0.389 -0.2338  0.0407 -0.2762
16321SOL    HW150383   7.231   7.280   0.319  0.7842  0.1565 -1.2188
16321SOL    HW250384   7.367   7.324   0.370 -0.0925  0.3434  1.1121
16322SOL     OW50385   3.933   0.560   2.384  0.3989 -0.4760 -0.4433
16322SOL    HW150386   3.905   0.635   2.332  0.6432 -0.1570 -0.1204
16322SOL    HW250387   3.854   0.507   2.394  0.1807 -0.1657 -0.5113
16323SOL     OW50388   0.551   4.530   0.469  0.5911  0.0074 -0.3302
16323SOL    HW150389   0.566   4.518   0.375  2.1046  1.2416 -0.2904
16323SOL    HW250390   0.635   4.508   0.509  0.2630  0.4947  0.6363
16324SOL     OW50391   0.613   2.113   1.490 -0.2367 -0.1433  0.3327
16324SOL    HW150392   0.559   2.056   1.435  0.0213 -0.6259  0.5736
16324SOL    HW250393   0.553   2.146   1.556 -0.3583 -0.2378  0.2700
16325SOL     OW50394   7.946   3.319   6.144 -0.2920  0.1170  0.0018
16325SOL    HW150395   7.867   3.334   6.092  0.9467  1.2608 -1.6829
16325SOL    HW250396   8.015   3.368   6.097  1.5664 -1.4348  0.9801
16326SOL     OW50397   1.856   5.207   6.480  0.0449  0.0955  0.1089
16326SOL    HW150398   1.872   5.299   6.459 -0.8591 -0.1523 -1.8729
16326SOL    HW250399   1.820   5.170   6.400  2.5294 -2.5845  0.0579
16327SOL     OW50400   8.037   6.511   1.789  0.2026 -0.4541 -0.4255
16327SOL    HW150401   8.070   6.542   1.873 -0.2682 -1.6096  0.1924
16327SOL    HW250402   7.963   6.568   1.770 -0.2743 -0.7867  0.4059
16328SOL     OW50403   4.366   5.421   2.770 -0.0901 -0.1006  1.5667
16328SOL    HW150404   4.450   5.440   2.813  0.6894 -0.5075  0.2686
16328SOL    HW250405   4.373   5.330   2.744 -0.4564  0.1891  0.4131
16329SOL     OW50406   4.265   3.704   1.828 -0.6646 -0.6931 -0.1231
16329SOL    HW150407   4.199   3.653   1.875 -0.4984  0.2360  1.1772
16329SOL    HW250408   4.219   3.736   1.750 -1.5796 -0.5956  0.4373
16330SOL     OW50409   5.033   3.252   2.678  0.0481  0.1535  0.2184
16330SOL    HW150410   5.016   3.185   2.611 -0.7049  0.2827  0.2792
16330SOL    HW250411   5.025   3.205   2.761 -1.7488  0.5760  0.3107
16331SOL     OW50412   0.296   7.849   2.106  0.1107 -0.4663  0.4104
16331SOL    HW150413   0.322   7.759   2.126  3.7718  0.5008  0.8004
16331SOL    HW250414   0.344   7.870   2.026  2.4732  2.1551  2.3051
16332SOL     OW50415   6.212   6.448   6.946 -0.5110  0.3004 -0.0119
16332SOL    HW150416   6.125   6.414   6.967 -0.0343 -0.8935  0.1305
16332SOL    HW250417   6.198   6.540   6.924 -1.8173  0.0975 -0.0780
16333SOL     OW50418   3.944   4.225   7.214 -0.1871  0.3546 -0.1884
16333SOL    HW150419   3.947   4.137   7.176  1.4677 -0.4232  1.5327
16333SOL    HW250420   3.986   4.281   7.149  0.0749 -0.4145 -0.6939
16334SOL     OW50421   4.723   7.245   0.323  0.5569  0.4011 -0.2216
16334SOL    HW150422   4.650   7.251   0.261 -0.3669  1.9671  0.9392
16334SOL    HW250423   4.687   7.276   0.405  1.4221 -2.6965  1.4704
16335SOL     OW50424   7.518   6.802   7.777  0.2309 -0.6169  0.4094
16335SOL    HW150425   7.441   6.778   7.725  1.2306 -2.8031 -0.1602
16335SOL    HW250426   7.520   6.738   7.849  1.4480 -0.5486  0.4639
16336SOL     OW50427   7.284   0.205   1.872  0.2581 -0.1598 -0.2058
16336SOL    HW150428   7.299   0.284   1.819 -1.4442  1.5473  1.6993
16336SOL    HW250429   7.369   0.186   1.911  0.3957  1.6456  0.4512
16337SOL     OW50430   2.925   4.322   5.045 -0.1873  0.3562 -0.4151
16337SOL    HW150431   2.991   4.390   5.033 -0.2501  1.0648  2.4019
16337SOL    HW250432   2.867   4.357   5.113 -0.9194 -2.0118  0.2750
16338SOL     OW50433   4.749   6.671   5.309 -0.2543  0.4465 -0.0520
16338SOL    HW150434   4.702   6.725   5.372  0.6899  2.7709 -1.2119
16338SOL    HW250435   4.688   6.660   5.236 -0.2052  0.5230 -0.1046
16339SOL     OW50436   4.415   3.264   7.456 -1.1622  0.7037 -0.6152
16339SOL    HW150437   4.475   3.268   7.382 -2.1066  0.4895 -1.4088
16339SOL    HW250438   4.373   3.350   7.458 -1.4322  0.5726 -0.5799
16340SOL     OW50439   0.512   6.799   4.474 -0.2479 -0.0570 -0.6534
16340SOL    HW150440   0.473   6.751   4.400 -1.3165  0.1347 -0.2360
16340SOL    HW250441   0.534   6.885   4.437  1.5228 -0.7728 -1.3614
16341SOL     OW50442   1.320   5.999   3.975 -0.3867 -0.2291 -0.2291
16341SOL    HW150443   1.413   6.014   3.962 -0.3513  0.4648  0.7095
16341SOL    HW250444   1.300   5.920   3.924  0.6278 -0.1723 -0.7253
16342SOL     OW50445   7.975   6.084   3.414 -0.0746 -0.3803  0.0448
16342SOL    HW150446   7.964   6.143   3.339  0.4748  0.8297  0.8859
16342SOL    HW250447   8.050   6.029   3.390  0.8774  0.8071  0.1724
16343SOL     OW50448   2.577   7.336   1.249  0.1687  0.1265  0.2263
16343SOL    HW150449   2.582   7.272   1.319  0.2549  2.4495  2.5137
16343SOL    HW250450   2.493   7.380   1.262 -0.8582 -0.8139 -2.5750
16344SOL     OW50451   7.603   0.714   3.388  0.2209 -0.1741 -0.5246
16344SOL    HW150452   7.558   0.655   3.327  0.2726  0.4895 -1.2252
16344SOL    HW250453   7.533   0.772   3.420  0.2060 -0.4764  0.0097
16345SOL     OW50454   7.865   0.324   0.699 -0.1456  0.3438 -0.3782
16345SOL    HW150455   7.870   0.376   0.619  0.3345  1.0846  0.1247
16345SOL    HW250456   7.887   0.235   0.671  0.6041  0.7065 -0.9629
16346SOL     OW50457   4.953   2.531   1.844  0.8123  0.1600 -0.5725
16346SOL    HW150458   4.921   2.621   1.849 -0.6629 -0.3862  0.2788
16346SOL    HW250459   4.980   2.511   1.933 -1.1192 -1.0064 -0.2060
16347SOL     OW50460   5.543   2.141   1.747 -0.1328 -0.2267  0.6607
16347SOL    HW150461   5.504   2.055   1.762 -1.4905  0.1514 -0.4623
16347SOL    HW250462   5.484   2.183   1.684  1.3910  0.9076 -0.0609
16348SOL     OW50463   6.043   2.693   7.935  0.3700  0.0059 -0.2303
16348SOL    HW150464   6.134   2.678   7.960 -0.0381 -0.3011  1.1709
16348SOL    HW250465   6.032   2.788   7.937  0.4800  0.0097  0.3067
16349SOL     OW50466   5.174   0.836   5.854  0.3343  0.1563 -0.1890
16349SOL    HW150467   5.221   0.866   5.776  2.0543  1.0306  1.1028
16349SOL    HW250468   5.231   0.769   5.893 -0.3398 -0.0523  0.4682
16350SOL     OW50469   0.510   2.875   2.167  0.6116  0.1169  0.0742
16350SOL    HW150470   0.516   2.969   2.182 -0.3510  0.1245  0.4664
16350SOL    HW250471   0.585   2.838   2.214 -0.0083  0.5228  1.4201
16351SOL     OW50472   0.555   4.248   6.936  0.1534 -0.1953  0.0509
16351SOL    HW150473   0.554   4.160   6.898 -0.0851 -0.7162  1.2088
16351SOL    HW250474   0.479   4.291   6.897 -1.4684 -1.4852  1.5761
16352SOL     OW50475   0.767   2.342   5.498 -0.1518  0.4800  0.4481
16352SOL    HW150476   0.789   2.374   5.586  0.3818 -0.8997  0.8369
16352SOL    HW250477   0.710   2.267   5.514 -0.3656  0.4547 -0.4078
16353SOL     OW50478   6.517   2.545   4.242  0.4752  0.0174  0.2809
16353SOL    HW150479   6.475   2.630   4.231 -0.4920 -0.1393  2.3437
16353SOL    HW250480   6.447   2.481   4.229  1.1355 -0.4791 -0.9768
16354SOL     OW50481   3.359   3.063   7.890  0.2541  0.0135  0.2238
16354SOL    HW150482   3.323   3.062   7.801 -2.2463  0.5203  1.1669
16354SOL    HW250483   3.422   2.991   7.890  0.9161  0.5016 -2.1653
16355SOL     OW50484   6.058   0.780   2.182  0.1476 -0.4939 -0.1370
16355SOL    HW150485   6.087   0.744   2.266  1.3128  0.5655 -0.0570
16355SOL    HW250486   6.132   0.831   2.150 -1.3333  1.7200 -0.3054
16356SOL     OW50487   8.030   2.844   5.918  0.2854  0.2452  0.0466
16356SOL    HW150488   8.032   2.751   5.942  1.9508 -0.0683 -1.1290
16356SOL    HW250489   8.009   2.890   5.999  1.5749 -1.0211  1.1472
16357SOL     OW50490   4.140   7.553   5.764 -0.2819 -0.4978  0.5245
16357SOL    HW150491   4.061   7.501   5.779  0.1149 -1.3185 -0.1808
16357SOL    HW250492   4.116   7.641   5.793 -1.7601 -0.5192 -0.5061
16358SOL     OW50493   3.074   5.552   3.761 -0.2487  0.6610  0.6913
16358SOL    HW150494   3.037   5.572   3.847 -0.4130  0.8232  0.5843
16358SOL    HW250495   3.016   5.486   3.725  0.2069  0.0946  0.9811
16359SOL     OW50496   3.669   3.541   2.042  0.0779  0.1422 -0.2049
16359SOL    HW150497   3.581   3.560   2.012 -0.8772 -0.0635  2.2363
16359SOL    HW250498   3.660   3.460   2.093  1.6027  0.3033  0.3800
16360SOL     OW50499   6.534   0.845   0.590  0.1906 -0.4790  0.5710
16360SOL    HW150500   6.486   0.786   0.531 -1.5702  1.4663 -0.0444
16360SOL    HW250501   6.617   0.862   0.545 -0.1926 -0.7787 -0.2720
16361SOL     OW50502   6.327   2.684   8.036 -0.2556  0.4688 -0.4333
16361SOL    HW150503   6.406   2.716   7.992 -0.4861  1.7848  0.0522
16361SOL    HW250504   6.327   2.730   8.120 -0.0369 -1.6885  0.8090
16362SOL     OW50505   6.405   6.765   1.848 -0.2385 -0.9106  0.1287
16362SOL    HW150506   6.342   6.819   1.801  0.6806  1.1980  1.1751
16362SOL    HW250507   6.393   6.788   1.940  3.0716  0.8922  0.2813
16363SOL     OW50508   4.572   2.690   7.799 -0.4403  0.6043  0.0804
16363SOL    HW150509   4.517   2.768   7.792 -1.7210 -0.3005 -0.2634
16363SOL    HW250510   4.543   2.634   7.727  1.2279  0.2625 -0.3608
16364SOL     OW50511   0.299   5.631   7.809  0.4645 -0.1573 -0.8749
16364SOL    HW150512   0.374   5.621   7.867  0.9244 -1.4263 -1.6435
16364SOL    HW250513   0.314   5.568   7.739 -0.4640  0.7889 -1.9690
16365SOL     OW50514   7.844   1.130   7.298  0.3570  0.2646 -0.1102
16365SOL    HW150515   7.886   1.066   7.356 -0.4710 -0.4285 -0.2543
16365SOL    HW250516   7.750   1.116   7.311  0.1423 -0.1518 -1.8597
16366SOL     OW50517   0.901   0.256   5.233  0.4022 -0.1960 -0.4456
16366SOL    HW150518   0.842   0.218   5.168  0.9099  0.9580 -1.6364
16366SOL    HW250519   0.873   0.218   5.316 -0.8779 -0.9990 -1.2051
16367SOL     OW50520   3.297   3.763   5.544  0.1227  0.2992  0.6557
16367SOL    HW150521   3.220   3.720   5.507  1.6717 -1.1340 -1.1018
16367SOL    HW250522   3.262   3.818   5.614 -2.2381 -2.2809  1.7167
16368SOL     OW50523   6.450   6.996   7.252  0.1478  0.2713  0.5780
16368SOL    HW150524   6.423   6.906   7.270  0.3793  0.2394  0.7796
16368SOL    HW250525   6.377   7.050   7.282  0.5280  0.2191  1.6521
16369SOL     OW50526   6.631   4.702   3.355 -0.2190 -0.2689  0.2941
16369SOL    HW150527   6.644   4.771   3.290 -1.6332 -1.0332 -0.8570
16369SOL    HW250528   6.669   4.624   3.314 -1.7370 -0.9109  0.0334
16370SOL     OW50529   5.272   2.572   1.308  0.0936 -0.1297 -0.6393
16370SOL    HW150530   5.225   2.655   1.300 -0.0052 -0.1542 -0.3377
16370SOL    HW250531   5.203   2.506   1.314  0.1300 -0.0556  1.0336
16371SOL     OW50532   1.934   4.467   8.022  0.3027  0.0256 -0.0713
16371SOL    HW150533   1.965   4.413   8.094  0.9061 -0.8586 -0.9708
16371SOL    HW250534   1.857   4.512   8.057  0.6993 -0.2352  1.1713
16372SOL     OW50535   6.420   2.739   1.985 -0.1700 -0.4440  0.1621
16372SOL    HW150536   6.340   2.730   2.037 -0.7274 -0.1411 -0.6284
16372SOL    HW250537   6.424   2.832   1.963 -0.6273 -0.7440 -1.3630
16373SOL     OW50538   7.478   6.395   6.569 -0.3861 -0.1963  0.2481
16373SOL    HW150539   7.501   6.468   6.511  0.3576 -0.0025  0.7684
16373SOL    HW250540   7.487   6.431   6.657 -0.9224 -0.6571  0.4961
16374SOL     OW50541   8.039   1.746   2.524 -0.2196  0.0480  0.2491
16374SOL    HW150542   8.085   1.790   2.453 -0.1943 -2.0665 -1.1262
16374SOL    HW250543   7.947   1.749   2.498 -0.5546  1.5578  1.4705
16375SOL     OW50544   3.285   0.139   2.133 -0.2848  0.4979  0.6548
16375SOL    HW150545   3.319   0.062   2.178 -1.2648  0.4443  1.3364
16375SOL    HW250546   3.316   0.213   2.185  0.4168  0.5552  0.1624
16376SOL     OW50547   5.166   6.579   1.622  0.0686  0.4971 -0.5348
16376SOL    HW150548   5.164   6.576   1.718  0.6558 -1.1933 -0.5355
16376SOL    HW250549   5.196   6.667   1.601  4.3703 -0.3599  0.9723
16377SOL     OW50550   5.233   3.780   7.380  0.4727  0.5966 -0.4811
16377SOL    HW150551   5.173   3.743   7.445 -0.3038  2.2433 -0.2150
16377SOL    HW250552   5.294   3.834   7.430  2.2718 -1.0749 -0.7457
16378SOL     OW50553   5.126   3.837   4.721  0.5782  0.0246  0.6771
16378SOL    HW150554   5.089   3.888   4.793  0.3920  3.1240 -1.4329
16378SOL    HW250555   5.056   3.832   4.657  0.8837 -2.2915  0.4304
16379SOL     OW50556   1.816   0.859   1.443  0.7359  0.0153  0.7509
16379SOL    HW150557   1.725   0.880   1.422  0.8229 -0.0717  0.2732
16379SOL    HW250558   1.868   0.907   1.378  1.0759  0.7017  1.4999
16380SOL     OW50559   2.910   7.170   1.855 -0.2131  0.0949 -0.7294
16380SOL    HW150560   2.914   7.266   1.853 -1.3790  0.1545 -0.8757
16380SOL    HW250561   2.884   7.146   1.766 -1.7987 -0.2344 -0.2051
16381SOL     OW50562   2.229   2.296   5.390  0.3708  0.0908 -0.6122
16381SOL    HW150563   2.217   2.207   5.423 -1.3246  1.2798  2.4421
16381SOL    HW250564   2.316   2.321   5.421  0.1902  0.0092 -0.0126
16382SOL     OW50565   0.425   5.496   8.035 -0.3054  0.5475  0.2779
16382SOL    HW150566   0.470   5.425   8.082  0.6590  1.7927  1.2958
16382SOL    HW250567   0.333   5.483   8.057 -0.0079  0.3590  1.5265
16383SOL     OW50568   6.036   6.538   1.428  0.0578  0.0989  0.3811
16383SOL    HW150569   6.104   6.508   1.368 -0.1742  0.3578 -0.0134
16383SOL    HW250570   6.023   6.464   1.488  2.0583  0.7316  1.7127
16384SOL     OW50571   3.386   7.177   2.696 -0.1055  0.0602 -0.0631
16384SOL    HW150572   3.421   7.256   2.738 -0.1422  0.0500 -0.0126
16384SOL    HW250573   3.294   7.175   2.722 -0.4694  0.7745 -1.2174
16385SOL     OW50574   1.833   0.719   1.675 -0.2015 -0.2854 -0.2950
16385SOL    HW150575   1.746   0.685   1.694 -0.1375  0.0648  0.6682
16385SOL    HW250576   1.822   0.767   1.593 -2.1115  3.7943  2.0082
16386SOL     OW50577   5.155   0.422   6.948 -0.0681  0.5052  0.0028
16386SOL    HW150578   5.165   0.458   7.036 -1.0021 -0.3670  0.4960
16386SOL    HW250579   5.064   0.393   6.945  0.3559 -0.8543 -0.7134
16387SOL     OW50580   7.507   4.630   2.404 -0.1810  0.0644 -0.4221
16387SOL    HW150581   7.503   4.550   2.456  0.5669 -0.1856 -0.7277
16387SOL    HW250582   7.596   4.663   2.419  1.1167 -1.4857 -3.5994
16388SOL     OW50583   1.376   3.805   3.761 -0.1431  0.5249  0.1354
16388SOL    HW150584   1.423   3.887   3.778  0.1823  0.2691  0.4992
16388SOL    HW250585   1.287   3.832   3.738 -0.7865  0.9270  2.7296
16389SOL     OW50586   1.305   3.913   0.383 -0.6909  0.1871 -0.4631
16389SOL    HW150587   1.235   3.958   0.429 -0.2499 -0.5456  0.9594
16389SOL    HW250588   1.332   3.975   0.315 -1.2527  1.3617  0.3502
16390SOL     OW50589   1.363   2.899   1.233 -0.4665  0.2950 -0.6181
16390SOL    HW150590   1.281   2.864   1.270 -1.2119  1.4727 -1.0852
16390SOL    HW250591   1.401   2.825   1.186 -2.7939  0.4162 -2.9427
16391SOL     OW50592   2.407   3.586   2.079  0.2606 -0.2697  0.0843
16391SOL    HW150593   2.485   3.614   2.032 -0.9010  0.9312 -1.2172
16391SOL    HW250594   2.432   3.590   2.171  2.2609 -1.6590 -0.3309
16392SOL     OW50595   2.514   3.826   7.330  0.2078  0.1139 -0.3387
16392SOL    HW150596   2.532   3.894   7.395  0.2505  0.1095 -0.3462
16392SOL    HW250597   2.433   3.785   7.361 -1.0532  1.5957 -1.4822
16393SOL     OW50598   3.555   1.758   1.570  0.4141 -0.0771 -0.0631
16393SOL    HW150599   3.561   1.850   1.545  0.5643  0.0977  0.5962
16393SOL    HW250600   3.506   1.717   1.499 -2.2390  1.0616  0.9800
16394SOL     OW50601   6.004   2.003   1.879  0.2259 -0.5683  0.0937
16394SOL    HW150602   5.976   1.976   1.791  0.2205 -2.4412  0.6322
16394SOL    HW250603   5.922   2.023   1.924  0.0900 -1.2738  0.1750
16395SOL     OW50604   5.149   3.575   6.710 -0.4753  0.3500  0.0902
16395SOL    HW150605   5.231   3.584   6.760 -0.2354 -0.3169 -0.1630
16395SOL    HW250606   5.105   3.500   6.750 -0.1411 -0.3850 -0.8573
16396SOL     OW50607   5.332   3.913   1.817 -0.6334 -0.6073 -0.0355
16396SOL    HW150608   5.375   3.966   1.750  0.0644 -0.8608  0.2038
16396SOL    HW250609   5.403   3.866   1.860 -0.7413  1.2155  2.3771
16397SOL     OW50610   1.638   5.491   2.142 -0.6430 -0.2906 -0.4637
16397SOL    HW150611   1.627   5.399   2.117  0.4764 -1.0425  1.5463
16397SOL    HW250612   1.641   5.489   2.238 -0.9391  1.9095 -0.3543
16398SOL     OW50613   0.682   7.413   2.084 -0.2111 -0.2161 -0.2340
16398SOL    HW150614   0.704   7.345   2.021  0.0812  0.2364 -0.6300
16398SOL    HW250615   0.645   7.484   2.030  1.8169  0.9708 -0.1668
16399SOL     OW50616   0.294   1.611   3.213  0.6517  0.3581 -0.5067
16399SOL    HW150617   0.260   1.574   3.294 -0.0544  0.3117 -0.8156
16399SOL    HW250618   0.286   1.539   3.150  0.1011  0.7598 -0.8982
16400SOL     OW50619   5.954   4.728   4.718 -0.0943 -0.6339 -0.0412
16400SOL    HW150620   5.988   4.769   4.798 -1.2444  0.4693 -0.0883
16400SOL    HW250621   5.894   4.660   4.749 -1.1575  0.3249  0.0659
16401SOL     OW50622   4.465   1.729   7.644  0.1699  0.0167 -0.0136
16401SOL    HW150623   4.462   1.675   7.723 -0.7993  0.4285  0.2453
16401SOL    HW250624   4.375   1.727   7.611  0.5031  0.0847 -0.9481
16402SOL     OW50625   7.860   2.510   7.302 -0.3052  0.8555  0.5407
16402SOL    HW150626   7.845   2.585   7.244 -1.7670 -0.0308 -0.2739
16402SOL    HW250627   7.951   2.484   7.284 -0.3895  1.2713 -0.5439
16403SOL     OW50628   4.110   7.464   0.398 -0.0452  0.3692  0.4161
16403SOL    HW150629   4.118   7.558   0.384  0.4136  0.5074  1.5098
16403SOL    HW250630   4.200   7.432   0.397 -0.2338 -0.1605 -0.5464
16404SOL     OW50631   0.350   2.379   2.479 -0.1322  0.2783  0.4038
16404SOL    HW150632   0.381   2.293   2.507 -1.0336  0.1146  0.9517
16404SOL    HW250633   0.293   2.409   2.551  0.8040  1.6932  0.6044
16405SOL     OW50634   3.009   5.845   4.449 -0.6789  0.3555 -0.1451
16405SOL    HW150635   3.052   5.810   4.372  0.3789  0.0803  0.5458
16405SOL    HW250636   2.967   5.769   4.490  1.9522 -0.3348  1.5730
16406SOL     OW50637   6.228   2.043   6.952 -0.1744  0.0957 -0.0634
16406SOL    HW150638   6.285   2.054   6.876 -1.5510 -1.1814 -1.3452
16406SOL    HW250639   6.287   2.015   7.022  1.0818  1.0232 -0.7043
16407SOL     OW50640   4.378   2.827   4.659  0.7256  0.3061 -0.1641
16407SOL    HW150641   4.420   2.873   4.731  0.1696 -0.2011  0.4978
16407SOL    HW250642   4.285   2.826   4.682  0.8103 -2.0175  0.3744
16408SOL     OW50643   4.202   2.271   0.178 -0.1423 -0.1607  0.3079
16408SOL    HW150644   4.107   2.260   0.186 -0.0545 -0.2498  1.3530
16408SOL    HW250645   4.226   2.325   0.253  0.7838 -1.1025  0.7115
16409SOL     OW50646   3.643   4.106   3.870  0.2731 -0.4028  0.1448
16409SOL    HW150647   3.712   4.108   3.805 -0.8915 -0.7037 -1.1501
16409SOL    HW250648   3.575   4.164   3.835 -0.3019 -0.4137  1.1859
16410SOL     OW50649   2.453   4.596   1.454 -0.1942 -0.3685  0.1657
16410SOL    HW150650   2.440   4.690   1.460 -0.2669 -0.3371 -0.4335
16410SOL    HW250651   2.428   4.562   1.541  0.9914  0.2918  0.7953
16411SOL     OW50652   1.337   2.414   3.053  0.0766 -0.1487  0.7377
16411SOL    HW150653   1.258   2.361   3.039 -0.1780 -0.0839  1.8473
16411SOL    HW250654   1.326   2.451   3.141  0.7274  0.9430  0.3746
16412SOL     OW50655   6.034   6.405   1.155  0.1330  0.1927 -0.6009
16412SOL    HW150656   6.035   6.466   1.081  0.1792  0.7727 -0.1240
16412SOL    HW250657   6.126   6.400   1.183 -0.0830  1.1134  0.3392
16413SOL     OW50658   6.678   4.573   2.602 -0.2038 -0.1762 -0.0751
16413SOL    HW150659   6.628   4.639   2.650  1.7238  1.3699 -0.0462
16413SOL    HW250660   6.754   4.556   2.658  2.4386  2.1290 -2.6015
16414SOL     OW50661   5.482   6.253   3.534  0.3919  0.0873 -0.1433
16414SOL    HW150662   5.443   6.177   3.492  1.6508 -0.1545 -0.9148
16414SOL    HW250663   5.508   6.221   3.621  1.8892 -0.6939 -0.8448
16415SOL     OW50664   0.523   4.882   2.382  0.1243 -0.1354 -0.5567
16415SOL    HW150665   0.473   4.862   2.462 -2.3050  0.6139 -1.7641
16415SOL    HW250666   0.513   4.977   2.372  1.4170 -0.0479 -1.1434
16416SOL     OW50667   3.695   3.414   3.590  0.1231 -0.2046  0.0881
16416SOL    HW150668   3.742   3.472   3.530  1.4717  0.0422  1.3116
16416SOL    HW250669   3.630   3.371   3.536  2.5002 -1.4460 -1.9843
16417SOL     OW50670   3.535   6.715   5.263 -0.2370 -0.5951 -0.5559
16417SOL    HW150671   3.618   6.716   5.215  0.3091  0.6880  0.3614
16417SOL    HW250672   3.489   6.793   5.231 -0.0721  0.0019  0.6245
16418SOL     OW50673   0.574   5.466   3.883  0.2815  0.8170  0.2245
16418SOL    HW150674   0.552   5.501   3.796  1.0005 -0.0044 -0.3071
16418SOL    HW250675   0.516   5.390   3.893  0.3729  0.7646  0.3519
16419SOL     OW50676   6.870   5.897   1.979 -0.5668  0.3418  0.1732
16419SOL    HW150677   6.840   5.816   1.939  1.8652 -0.7791  0.4188
16419SOL    HW250678   6.850   5.965   1.915 -1.1414 -0.6859 -0.7683
16420SOL     OW50679   0.657   2.574   6.175  0.3559 -0.7638 -0.8406
16420SOL    HW150680   0.605   2.495   6.185  0.7606 -1.1514 -1.7816
16420SOL    HW250681   0.724   2.567   6.244 -1.0250 -0.0642  0.6544
16421SOL     OW50682   3.317   1.991   6.717  0.1153  0.5496  0.1262
16421SOL    HW150683   3.297   2.063   6.776  1.3970  2.7968 -2.0199
16421SOL    HW250684   3.266   2.009   6.638  1.2177 -0.3395 -0.8312
16422SOL     OW50685   4.298   5.318   7.340 -0.3761 -0.0482  0.4697
16422SOL    HW150686   4.349   5.396   7.319  0.0128 -0.3389  0.3115
16422SOL    HW250687   4.207   5.345   7.330 -0.2255  0.0993 -0.6216
16423SOL     OW50688   1.204   1.749   5.917 -0.2820  0.1779 -0.0886
16423SOL    HW150689   1.244   1.681   5.864 -1.7894 -0.2520 -0.7405
16423SOL    HW250690   1.110   1.743   5.898 -0.6056  1.5840  0.8270
16424SOL     OW50691   5.009   4.403   4.349  0.3858 -0.2002  0.1484
16424SOL    HW150692   4.945   4.424   4.282 -0.8067  0.1303  1.3391
16424SOL    HW250693   4.981   4.318   4.383  2.7049 -1.8408 -1.7388
16425SOL     OW50694   3.456   2.193   5.538  0.4172  0.0431  0.0335
16425SOL    HW150695   3.505   2.145   5.471  1.8689  0.0348  1.0629
16425SOL    HW250696   3.452   2.132   5.612 -0.2641  0.4396  0.3241
16426SOL     OW50697   1.838   5.542   0.760  0.1860 -0.5138 -0.2936
16426SOL    HW150698   1.784   5.619   0.778  0.8575 -0.2609  0.7166
16426SOL    HW250699   1.902   5.540   0.831  1.1609 -1.1298 -1.1595
16427SOL     OW50700   0.396   0.724   3.085  0.1982  0.0562 -0.2752
16427SOL    HW150701   0.328   0.675   3.132 -0.3686  0.0479 -1.0920
16427SOL    HW250702   0.477   0.678   3.107 -0.2636 -0.9561 -0.6305
16428SOL     OW50703   4.542   1.589   1.585  0.2129 -1.1118  0.5855
16428SOL    HW150704   4.492   1.508   1.601  0.7723 -1.6212 -0.1587
16428SOL    HW250705   4.482   1.643   1.533 -0.2767 -0.9158  1.3433
16429SOL     OW50706   6.885   1.555   4.029  0.2756  0.2319 -0.1495
16429SOL    HW150707   6.790   1.541   4.025  0.5628 -1.6809 -2.6952
16429SOL    HW250708   6.915   1.494   4.097 -0.3637  1.5680  1.3891
16430SOL     OW50709   3.007   5.985   3.257  0.2961 -0.0910  0.2170
16430SOL    HW150710   2.989   6.078   3.272  1.5556 -0.0964  2.1769
16430SOL    HW250711   3.041   5.981   3.168  0.3046  1.3482  0.1290
16431SOL     OW50712   5.781   1.878   3.364 -0.0221 -0.3459  0.2825
16431SOL    HW150713   5.687   1.861   3.355  0.1352 -2.0549  1.4899
16431SOL    HW250714   5.786   1.964   3.405 -0.9359  1.3275 -2.7929
16432SOL     OW50715   5.719   3.388   6.974  0.3799 -0.0986  0.4055
16432SOL    HW150716   5.811   3.363   6.981  0.4451 -0.4470 -1.1718
16432SOL    HW250717   5.711   3.421   6.884 -0.9639  0.2462  0.6348
16433SOL     OW50718   4.839   0.314   7.945  0.3886  0.1276  0.0676
16433SOL    HW150719   4.857   0.222   7.963 -1.0325 -0.0974  0.4465
16433SOL    HW250720   4.749   0.327   7.973  0.5025  1.5984 -0.1556
16434SOL     OW50721   4.020   0.832   0.991  0.4579  0.3387  0.2512
16434SOL    HW150722   3.926   0.850   1.000  0.5290  1.2429 -0.6492
16434SOL    HW250723   4.062   0.916   1.007  0.9510  0.5053 -1.6616
16435SOL     OW50724   1.277   1.146   0.451 -0.1205 -0.0962  0.4329
16435SOL    HW150725   1.360   1.185   0.424 -0.4507 -0.7576 -1.7145
16435SOL    HW250726   1.300   1.059   0.482 -0.0748 -0.6366 -1.0502
16436SOL     OW50727   6.694   6.419   0.089  0.0964  0.4315  0.3655
16436SOL    HW150728   6.741   6.453   0.165  0.6300  1.9032 -0.5800
16436SOL    HW250729   6.762   6.384   0.032 -0.3081 -0.7119  0.5561
16437SOL     OW50730   5.322   3.735   4.412 -0.0724  0.4670  0.2348
16437SOL    HW150731   5.226   3.731   4.408  0.0000 -1.5745 -0.3810
16437SOL    HW250732   5.345   3.680   4.487  0.6681 -0.1299 -0.4216
16438SOL     OW50733   7.199   0.409   3.391 -0.3682  0.1265 -0.6191
16438SOL    HW150734   7.130   0.403   3.325 -0.9762  1.2138 -0.1022
16438SOL    HW250735   7.184   0.335   3.449 -2.6183  1.6594  0.8892
16439SOL     OW50736   0.698   0.413   1.378  0.3380  0.2077 -0.8413
16439SOL    HW150737   0.714   0.441   1.468 -1.5622  1.3031 -0.8151
16439SOL    HW250738   0.689   0.318   1.384 -0.6795  0.3560  0.2849
16440SOL     OW50739   0.267   7.551   5.938  0.4887 -0.2136 -0.2520
16440SOL    HW150740   0.244   7.518   6.025  1.3376 -0.8969 -0.2726
16440SOL    HW250741   0.239   7.481   5.879  1.9056 -0.7471 -0.3332
16441SOL     OW50742   0.962   3.366   7.318 -0.1906 -0.6328 -0.5051
16441SOL    HW150743   0.973   3.271   7.320  1.8299 -0.4360 -0.3801
16441SOL    HW250744   0.931   3.389   7.406  3.8260 -0.7775  1.1424
16442SOL     OW50745   3.873   6.310   6.664  0.0387 -0.3118  0.0090
16442SOL    HW150746   3.941   6.244   6.676 -1.1487 -1.5066  0.4035
16442SOL    HW250747   3.851   6.339   6.753  1.2370  1.3769 -0.2033
16443SOL     OW50748   0.728   6.192   7.178  0.3877  0.0410  0.2422
16443SOL    HW150749   0.709   6.104   7.211  1.7942 -0.3702  0.0302
16443SOL    HW250750   0.771   6.236   7.251 -2.7703  1.5861  1.3659
16444SOL     OW50751   5.452   2.736   7.855 -0.3413 -0.5129 -0.8133
16444SOL    HW150752   5.495   2.793   7.791 -1.0038  0.0531 -0.7647
16444SOL    HW250753   5.395   2.794   7.904  0.9797 -0.7137  1.0671
16445SOL     OW50754   3.450   0.987   1.543 -0.6211  0.2929 -0.1626
16445SOL    HW150755   3.396   0.991   1.622  0.0506  0.0876  0.3212
16445SOL    HW250756   3.411   1.051   1.484  0.0806  1.9765  1.1199
16446SOL     OW50757   5.867   5.715   1.425  0.2064 -0.0311  0.6257
16446SOL    HW150758   5.927   5.729   1.352  0.2711 -0.6494  0.5563
16446SOL    HW250759   5.801   5.655   1.391 -1.5420  2.0440  0.0940
16447SOL     OW50760   5.484   5.249   7.991  0.2755  0.0590 -0.6748
16447SOL    HW150761   5.441   5.289   7.915  1.1373  0.6283 -0.8711
16447SOL    HW250762   5.572   5.228   7.960 -0.0398 -1.7225 -0.4839
16448SOL     OW50763   1.689   7.142   0.351  0.4103 -0.0689 -0.5964
16448SOL    HW150764   1.645   7.070   0.307  0.9492 -0.2568 -0.8368
16448SOL    HW250765   1.626   7.215   0.347 -0.5061 -0.7794  0.4619
16449SOL     OW50766   6.153   0.077   2.432 -0.0957  0.3920 -0.5824
16449SOL    HW150767   6.075   0.089   2.378  1.7044  3.2499 -2.7762
16449SOL    HW250768   6.141   0.137   2.506 -0.3064  0.2326 -0.4856
16450SOL     OW50769   3.032   1.226   0.476 -0.1047 -0.1309  0.1298
16450SOL    HW150770   3.125   1.203   0.476  0.2597  1.2615  0.7020
16450SOL    HW250771   2.987   1.143   0.490  1.1104 -0.6600  1.0382
16451SOL     OW50772   3.097   2.566   5.734  0.1547 -0.2302  0.4426
16451SOL    HW150773   3.081   2.634   5.800 -0.2856 -1.2152  1.3910
16451SOL    HW250774   3.185   2.534   5.754 -0.1498 -0.8344  0.8563
16452SOL     OW50775   2.905   2.823   5.764  0.1439  0.0201  0.3648
16452SOL    HW150776   2.814   2.853   5.763 -0.1056 -0.6189  1.4482
16452SOL    HW250777   2.936   2.842   5.853  1.0679  0.2034  0.0212
16453SOL     OW50778   3.610   2.328   3.792 -0.1864  0.1548  0.4503
16453SOL    HW150779   3.655   2.273   3.727  1.4398  0.4658  1.2587
16453SOL    HW250780   3.547   2.378   3.741  1.6524  1.0500 -1.0773
16454SOL     OW50781   1.551   4.070   6.437 -0.0976 -0.2002  0.3914
16454SOL    HW150782   1.463   4.042   6.412  0.5567 -1.2898 -0.7808
16454SOL    HW250783   1.584   4.119   6.362  0.8031 -0.9919  0.2434
16455SOL     OW50784   7.803   1.058   5.550 -0.2466 -0.1258  0.1576
16455SOL    HW150785   7.869   1.076   5.484  0.2196 -2.0303  0.0457
16455SOL    HW250786   7.770   1.145   5.576 -0.2384  0.6954 -2.3272
16456SOL     OW50787   0.304   3.886   4.349  0.2912  0.1582  0.0265
16456SOL    HW150788   0.297   3.844   4.435  0.9908 -0.8964 -0.4223
16456SOL    HW250789   0.362   3.829   4.299  0.5370  1.1893 -0.8935
16457SOL     OW50790   6.870   8.039   6.225 -0.2235  0.3326  0.0397
16457SOL    HW150791   6.878   8.112   6.164  4.5372  1.9581  2.0909
16457SOL    HW250792   6.882   7.960   6.171 -1.6104  1.2442 -1.6960
16458SOL     OW50793   7.074   5.963   2.572 -0.2857 -0.0883  0.4355
16458SOL    HW150794   7.097   5.937   2.661 -1.3384  1.7420  1.3066
16458SOL    HW250795   7.079   6.058   2.573  0.9791 -0.0589 -1.8723
16459SOL     OW50796   3.685   3.326   5.412 -0.2764  0.0474 -0.2840
16459SOL    HW150797   3.600   3.315   5.369 -0.2044  0.4644 -0.5429
16459SOL    HW250798   3.748   3.327   5.341 -0.3119  2.4356 -0.3653
16460SOL     OW50799   1.462   4.198   4.574 -0.3835  0.0602 -0.0592
16460SOL    HW150800   1.444   4.104   4.562  0.1147 -0.0648  0.1613
16460SOL    HW250801   1.376   4.236   4.590 -0.6379 -0.3001 -0.5181
16461SOL     OW50802   1.049   3.838   6.990 -0.2678 -0.6821  0.0698
16461SOL    HW150803   1.014   3.804   7.072  0.3747 -2.5781 -0.3782
16461SOL    HW250804   1.055   3.761   6.933  0.1880  0.4152 -1.4344
16462SOL     OW50805   4.692   3.021   1.842  0.8077 -0.2623 -0.3135
16462SOL    HW150806   4.650   3.095   1.885 -0.5680 -0.3480 -1.4426
16462SOL    HW250807   4.657   2.944   1.887 -0.0815 -0.3234 -1.0855
16463SOL     OW50808   5.017   7.109   2.257 -0.2666  0.0311 -0.0643
16463SOL    HW150809   4.986   7.025   2.222 -0.5849 -0.5036  1.4386
16463SOL    HW250810   5.111   7.096   2.270  0.0713  0.5966 -1.6492
16464SOL     OW50811   6.969   3.445   3.643 -0.0892  0.9917  0.2059
16464SOL    HW150812   6.977   3.523   3.698 -0.5213  0.4621  1.0497
16464SOL    HW250813   6.935   3.477   3.560 -0.6512  1.6615  0.6830
16465SOL     OW50814   4.771   0.640   1.650  0.0130  0.2880 -0.2726
16465SOL    HW150815   4.788   0.607   1.562 -0.9402 -1.5002  0.1568
16465SOL    HW250816   4.686   0.603   1.674  0.8188 -0.3831  1.8755
16466SOL     OW50817   6.403   5.659   5.270 -0.4209  0.1008  0.6847
16466SOL    HW150818   6.446   5.739   5.241 -1.8146  0.5977 -0.0912
16466SOL    HW250819   6.423   5.595   5.202  0.0268  0.0088  0.9005
16467SOL     OW50820   6.269   2.536   7.365 -0.3565 -0.2340  0.2791
16467SOL    HW150821   6.220   2.518   7.285  1.1285 -1.4272 -0.4083
16467SOL    HW250822   6.314   2.619   7.347  0.3569 -0.7381 -0.3518
16468SOL     OW50823   6.664   3.547   7.751  0.7447  0.1126  0.4700
16468SOL    HW150824   6.653   3.454   7.732  1.7283  0.0296  0.2855
16468SOL    HW250825   6.578   3.585   7.732  0.3418 -0.7472  0.5198
16469SOL     OW50826   1.033   3.537   3.791  0.3464 -0.3822 -0.0691
16469SOL    HW150827   1.006   3.537   3.699  0.9702  0.0795 -0.2661
16469SOL    HW250828   1.129   3.545   3.787  0.4012 -0.6838  0.6150
16470SOL     OW50829   5.849   4.959   4.625 -0.3017  0.1540 -0.2722
16470SOL    HW150830   5.886   4.871   4.635  0.9855  0.5364 -1.3959
16470SOL    HW250831   5.762   4.944   4.590  0.5125 -0.6709 -2.0807
16471SOL     OW50832   5.500   7.610   1.465 -0.8177  0.0076  0.2668
16471SOL    HW150833   5.551   7.610   1.384  1.1309  0.1441  1.4347
16471SOL    HW250834   5.413   7.641   1.439 -0.4600 -0.6413 -1.8790
16472SOL     OW50835   6.365   6.829   0.563 -0.2795 -0.2426 -0.1853
16472SOL    HW150836   6.388   6.737   0.570 -0.6851 -0.4291 -1.1294
16472SOL    HW250837   6.426   6.864   0.498  0.0375  0.2178  0.3491
16473SOL     OW50838   7.013   3.156   0.181 -0.2471  0.3706 -0.3620
16473SOL    HW150839   7.104   3.127   0.191 -0.2734  0.1818 -0.6586
16473SOL    HW250840   6.963   3.098   0.238 -0.0989  0.9422  0.3638
16474SOL     OW50841   1.368   3.017   1.575 -0.2096 -0.0513  0.1405
16474SOL    HW150842   1.419   2.944   1.609  0.6911  0.6665  0.3827
16474SOL    HW250843   1.300   2.977   1.522  1.0883 -1.0266 -0.8584
16475SOL     OW50844   1.576   4.622   2.700 -0.3805  0.2427  0.1874
16475SOL    HW150845   1.602   4.573   2.777  0.2400 -0.0847 -0.2252
16475SOL    HW250846   1.644   4.689   2.690  1.7492 -2.0404 -2.2329
16476SOL     OW50847   7.411   4.178   5.734  0.3365 -0.4276 -0.7246
16476SOL    HW150848   7.501   4.209   5.744  0.7697 -1.3618 -1.5495
16476SOL    HW250849   7.411   4.132   5.650 -0.9552 -0.3143 -0.8056
16477SOL     OW50850   7.627   4.050   2.462 -0.6342 -0.1990  0.2730
16477SOL    HW150851   7.633   3.998   2.542  0.5811 -1.1123 -0.3936
16477SOL    HW250852   7.599   3.988   2.395  1.7636 -0.2611 -0.7381
16478SOL     OW50853   2.930   5.300   7.492  0.6301 -0.4071  0.2406
16478SOL    HW150854   2.922   5.284   7.398 -2.6798  2.5277 -0.1870
16478SOL    HW250855   2.991   5.373   7.499 -1.0085  1.0514  0.0202
16479SOL     OW50856   0.949   8.055   1.973  0.2233  0.0552 -0.2127
16479SOL    HW150857   0.960   8.058   1.878  0.4737 -0.8355 -0.2220
16479SOL    HW250858   0.863   8.015   1.985 -0.0609  0.6914 -0.0599
16480SOL     OW50859   5.340   5.159   0.994  1.0970  0.0605 -0.5304
16480SOL    HW150860   5.358   5.222   1.064  0.1041  0.2827 -0.4633
16480SOL    HW250861   5.272   5.201   0.941  0.7367 -0.7623 -0.7330
16481SOL     OW50862   0.514   2.527   0.317 -0.8536  0.7914  0.4388
16481SOL    HW150863   0.461   2.529   0.237 -0.0633  2.0166 -0.0938
16481SOL    HW250864   0.527   2.619   0.340  0.1673  0.5002  1.1396
16482SOL     OW50865   7.651   1.791   2.820  0.3180 -0.2171  0.2078
16482SOL    HW150866   7.711   1.852   2.862  0.1859  0.4653 -0.5667
16482SOL    HW250867   7.703   1.712   2.803  0.5927 -0.1820  0.8576
16483SOL     OW50868   0.632   0.083   6.283  0.1071  0.2696  0.4351
16483SOL    HW150869   0.628   0.134   6.202 -2.7548  0.3316  0.5145
16483SOL    HW250870   0.650  -0.007   6.254 -2.3088  0.0158 -0.5021
16484SOL     OW50871   6.064   5.202   7.309 -0.1166 -0.0047  0.3232
16484SOL    HW150872   6.084   5.286   7.268 -0.9303  0.6233  1.1590
16484SOL    HW250873   5.989   5.220   7.366 -2.0699 -1.8683 -1.4610
16485SOL     OW50874   4.028   5.949   1.590  0.6062  0.2765 -0.3603
16485SOL    HW150875   4.096   5.882   1.591  1.2727  0.9035  1.3177
16485SOL    HW250876   3.990   5.945   1.678 -0.1389  1.3102 -0.6161
16486SOL     OW50877   3.515   4.505   2.196 -0.4302  0.8276 -0.0430
16486SOL    HW150878   3.573   4.506   2.120 -1.6008 -0.9246 -1.0449
16486SOL    HW250879   3.433   4.543   2.164 -0.5155  1.3591  0.7673
16487SOL     OW50880   6.768   4.822   7.238 -0.0947 -0.4263  0.2818
16487SOL    HW150881   6.695   4.843   7.297 -0.4169  0.4953 -0.4186
16487SOL    HW250882   6.841   4.874   7.271 -0.1496 -0.2577  0.1362
16488SOL     OW50883   5.194   6.255   3.490  0.2101 -0.2352 -0.4023
16488SOL    HW150884   5.232   6.278   3.575 -0.2024  1.0955 -0.5638
16488SOL    HW250885   5.218   6.327   3.432  0.5857 -1.1927 -1.4595
16489SOL     OW50886   0.361   4.595   7.137  0.3610 -1.0768  0.0370
16489SOL    HW150887   0.432   4.549   7.183  1.7685 -0.4242 -1.4063
16489SOL    HW250888   0.351   4.677   7.185  2.1843 -0.1642 -1.0572
16490SOL     OW50889   5.722   7.714   5.447 -0.3303 -0.0190 -0.4456
16490SOL    HW150890   5.722   7.740   5.355  1.4071 -0.6721 -0.6635
16490SOL    HW250891   5.674   7.631   5.448 -0.7470  0.2136 -0.6762
16491SOL     OW50892   7.648   2.097   7.694 -0.0744  0.1576 -0.5053
16491SOL    HW150893   7.713   2.111   7.625 -0.6940 -0.7240 -1.2912
16491SOL    HW250894   7.678   2.152   7.767  2.5228 -1.5464 -0.1664
16492SOL     OW50895   5.029   3.261   2.191  0.6944  0.5398  0.0647
16492SOL    HW150896   5.112   3.295   2.224  0.1222 -0.1130  2.3583
16492SOL    HW250897   5.028   3.169   2.218 -0.2069  0.1736 -1.1200
16493SOL     OW50898   2.854   0.919   7.272  0.0247 -0.0848  0.2610
16493SOL    HW150899   2.792   0.846   7.278 -1.1036  0.7448 -0.7035
16493SOL    HW250900   2.864   0.950   7.362 -0.6296 -0.5186  0.4907
16494SOL     OW50901   2.520   4.370   1.841  0.0200 -0.1019  0.2394
16494SOL    HW150902   2.590   4.400   1.783 -0.0888 -1.0851 -0.4189
16494SOL    HW250903   2.439   4.395   1.795 -0.1220  1.7639  1.3694
16495SOL     OW50904   3.326   7.803   6.612 -0.5530 -0.1050  0.3324
16495SOL    HW150905   3.416   7.835   6.621 -1.4616  2.4549  1.5304
16495SOL    HW250906   3.313   7.793   6.518  0.5636  0.9342  0.0403
16496SOL     OW50907   5.523   3.313   1.217 -0.1478  0.5535 -0.0703
16496SOL    HW150908   5.472   3.254   1.273  1.0753  0.7700  1.3320
16496SOL    HW250909   5.501   3.401   1.247  1.5615  0.6272  1.0555
16497SOL     OW50910   5.912   3.759   6.335  0.4104 -0.5357 -0.0781
16497SOL    HW150911   5.857   3.720   6.267 -1.4003  1.7253 -0.0439
16497SOL    HW250912   5.998   3.767   6.294 -0.5013  0.2953 -1.9962
16498SOL     OW50913   6.850   6.873   4.298 -0.5764 -0.1269 -0.2901
16498SOL    HW150914   6.930   6.866   4.350 -1.0499  0.9824  0.6336
16498SOL    HW250915   6.876   6.922   4.220 -0.4234  0.5768  0.1931
16499SOL     OW50916   6.603   0.885   4.948  0.2352 -0.2816 -0.3015
16499SOL    HW150917   6.553   0.945   4.892  1.2249  1.6311  0.7559
16499SOL    HW250918   6.690   0.927   4.956 -0.0684 -0.0120  3.2262
16500SOL     OW50919   7.044   2.489   4.752 -0.5786 -0.5860 -0.0780
16500SOL    HW150920   7.083   2.500   4.838 -1.0090 -0.5175  0.1095
16500SOL    HW250921   6.950   2.499   4.766 -0.6665 -0.7339 -0.5279
16501SOL     OW50922   2.229   5.294   7.516  0.4388 -0.3474  0.2584
16501SOL    HW150923   2.137   5.290   7.490  0.6318 -1.9220 -0.2641
16501SOL    HW250924   2.229   5.344   7.598 -0.6255  1.4260 -0.7465
16502SOL     OW50925   5.723   7.140   1.985  0.0362 -0.3125  0.2029
16502SOL    HW150926   5.675   7.194   1.922  2.1197 -0.5304 -1.6898
16502SOL    HW250927   5.682   7.054   1.980 -0.8761  0.0986  0.4194
16503SOL     OW50928   5.345   8.012   7.167  0.2809  0.2256  0.6573
16503SOL    HW150929   5.266   8.004   7.112 -0.4129 -0.4790  1.7151
16503SOL    HW250930   5.393   8.085   7.129 -0.5555  0.2480 -0.4221
16504SOL     OW50931   7.020   3.282   2.719 -0.0001 -0.2063  0.2042
16504SOL    HW150932   7.064   3.305   2.801 -0.9054  0.6178  0.4783
16504SOL    HW250933   7.008   3.187   2.723 -0.6564 -0.0886  1.3455
16505SOL     OW50934   0.631   7.866   6.850  0.1939  0.3791 -0.6218
16505SOL    HW150935   0.597   7.930   6.787  0.5096  0.5476 -0.6254
16505SOL    HW250936   0.719   7.845   6.817  1.2212  2.0449  0.8665
16506SOL     OW50937   0.946   7.758   2.797 -0.3642  0.1607 -0.7585
16506SOL    HW150938   1.019   7.696   2.797 -0.4066 -0.0802  2.6737
16506SOL    HW250939   0.968   7.820   2.728  2.0702 -1.0185 -1.1734
16507SOL     OW50940   4.788   0.882   4.080 -0.4074  0.8329 -0.0593
16507SOL    HW150941   4.875   0.898   4.114 -0.0075  0.6984 -0.9738
16507SOL    HW250942   4.765   0.795   4.113 -0.4687  1.1363  0.7101
16508SOL     OW50943   5.283   6.868   4.273 -0.1334 -0.4236  0.7743
16508SOL    HW150944   5.307   6.791   4.324 -1.9842 -0.8711  1.0498
16508SOL    HW250945   5.350   6.875   4.206  1.9833 -0.2569  2.7788
16509SOL     OW50946   2.025   5.557   0.958  0.1286  0.0488  0.0813
16509SOL    HW150947   2.061   5.641   0.929  0.3829  0.9967  2.8719
16509SOL    HW250948   2.090   5.523   1.020 -2.4039  0.5000  3.2062
16510SOL     OW50949   1.719   2.875   1.296  0.0540  0.4409 -0.2305
16510SOL    HW150950   1.711   2.951   1.354  1.7623  0.2973  0.2385
16510SOL    HW250951   1.669   2.806   1.341 -0.3279  0.8867  0.0437
16511SOL     OW50952   1.984   6.510   7.227 -0.5820 -0.2795  0.3058
16511SOL    HW150953   2.031   6.587   7.258  0.6599 -0.8239 -0.1553
16511SOL    HW250954   1.907   6.505   7.283 -0.9649  1.5774  0.0144
16512SOL     OW50955   0.414   7.970   2.924 -0.8585 -0.2836  0.3815
16512SOL    HW150956   0.387   7.929   2.842 -0.4878 -0.1439  0.1824
16512SOL    HW250957   0.456   7.899   2.974  0.8712  0.0729 -0.4645
16513SOL     OW50958   4.542   5.392   1.905 -0.1706  0.4814 -0.1521
16513SOL    HW150959   4.449   5.399   1.923 -0.3962 -0.6203 -0.8257
16513SOL    HW250960   4.558   5.299   1.895  1.2250  0.5642  1.0243
16514SOL     OW50961   3.627   0.234   4.604 -0.7492 -0.4008  0.4750
16514SOL    HW150962   3.643   0.140   4.606 -0.4113 -0.3813 -0.7339
16514SOL    HW250963   3.685   0.267   4.536  0.0377  0.8713  1.7054
16515SOL     OW50964   0.627   7.518   5.621 -0.0523 -0.1490  0.4146
16515SOL    HW150965   0.685   7.488   5.691 -0.0032 -0.2848  0.3164
16515SOL    HW250966   0.556   7.454   5.620  0.4126 -0.6593 -0.2626
16516SOL     OW50967   3.924   5.899   2.121 -0.3445  0.9706  0.0598
16516SOL    HW150968   3.919   5.845   2.200 -1.3826 -0.2163 -0.7645
16516SOL    HW250969   4.016   5.900   2.098 -0.5026 -3.5781 -1.8614
16517SOL     OW50970   0.662   4.473   0.816 -0.4790 -0.5408 -0.2408
16517SOL    HW150971   0.751   4.494   0.786 -0.4404 -1.1060 -0.5188
16517SOL    HW250972   0.674   4.448   0.908 -0.2581 -1.2274 -0.4493
16518SOL     OW50973   5.701   1.276   3.029 -0.0704 -0.7101 -0.2157
16518SOL    HW150974   5.746   1.292   3.111  0.4440 -0.9293 -0.4533
16518SOL    HW250975   5.700   1.361   2.985 -0.8626 -0.4606  0.2658
16519SOL     OW50976   5.594   4.721   6.571 -0.3296 -0.2687  0.2715
16519SOL    HW150977   5.620   4.717   6.663  0.4867  0.7464  0.1003
16519SOL    HW250978   5.561   4.633   6.552  1.8257 -1.2681  0.8375
16520SOL     OW50979   6.523   6.157   6.804 -0.9830  0.2842  0.0362
16520SOL    HW150980   6.440   6.184   6.844  1.0817  3.2026  2.8367
16520SOL    HW250981   6.547   6.231   6.749  0.4936  0.2146  0.5574
16521SOL     OW50982   2.302   6.078   0.188  0.3802  0.1922  0.6557
16521SOL    HW150983   2.222   6.116   0.225  0.0901  0.6626 -0.4212
16521SOL    HW250984   2.372   6.135   0.219  0.1030  0.7864  0.1938
16522SOL     OW50985   3.280   6.408   0.008 -0.4055  0.4105 -0.1959
16522SOL    HW150986   3.364   6.453   0.000  0.1881 -0.5090  0.6446
16522SOL    HW250987   3.284   6.362   0.092 -0.2369 -2.6299 -1.7151
16523SOL     OW50988   0.751   7.003   5.597  0.6982 -0.0913  0.0698
16523SOL    HW150989   0.676   7.001   5.538  1.3307  0.0382 -0.7419
16523SOL    HW250990   0.781   6.912   5.601  1.3397  0.0828 -0.6943
16524SOL     OW50991   6.574   5.973   6.037 -0.0926  0.0057  0.2373
16524SOL    HW150992   6.556   5.896   5.983  1.6560  0.1591 -0.6250
16524SOL    HW250993   6.543   6.047   5.983  0.7696  0.0903 -0.1515
16525SOL     OW50994   3.495   3.386   4.319 -0.0411 -0.1627 -0.0164
16525SOL    HW150995   3.440   3.448   4.270 -0.4189  0.1564  0.7972
16525SOL    HW250996   3.585   3.416   4.302 -0.1637 -0.0373 -0.4775
16526SOL     OW50997   3.938   3.906   7.383 -0.0745 -0.0798  0.5183
16526SOL    HW150998   4.008   3.841   7.391 -0.9707 -1.0754  0.4722
16526SOL    HW250999   3.924   3.937   7.472 -0.9776 -1.4201  0.8783
16527SOL     OW51000   3.039   1.101   1.701 -0.7214 -0.5564  0.4147
16527SOL    HW151001   2.966   1.120   1.642  0.3026 -0.5292 -0.8791
16527SOL    HW251002   2.997   1.068   1.780 -2.1462 -0.4503 -0.2628
16528SOL     OW51003   6.677   3.476   6.774  0.5624  0.3769 -0.1192
16528SOL    HW151004   6.674   3.571   6.774  0.8230  0.3865 -0.1561
16528SOL    HW251005   6.697   3.452   6.864 -0.0447  0.3356  0.0088
16529SOL     OW51006   0.519   4.218   5.483 -0.1669 -0.1056 -1.0194
16529SOL    HW151007   0.449   4.269   5.443 -1.0869 -0.8603 -0.4252
16529SOL    HW251008   0.483   4.191   5.568  1.4862  0.9477  0.0741
16530SOL     OW51009   1.661   6.675   2.243 -0.1114  0.7877 -0.2177
16530SOL    HW151010   1.675   6.610   2.311 -0.7035  1.0124  0.1185
16530SOL    HW251011   1.747   6.716   2.232 -0.4456  2.2513  1.9426
16531SOL     OW51012   2.905   1.604   0.827 -0.7073 -0.5680  0.1009
16531SOL    HW151013   2.921   1.605   0.922 -0.2601 -1.2065  0.0320
16531SOL    HW251014   2.817   1.640   0.818 -0.2796  0.6800  0.6606
16532SOL     OW51015   3.031   2.853   5.504 -0.0375  0.0212  0.4543
16532SOL    HW151016   2.964   2.819   5.444  0.4350  0.8047 -0.5472
16532SOL    HW251017   3.004   2.821   5.590 -3.4914  2.8446  0.6738
16533SOL     OW51018   1.406   2.684   5.809  0.4577 -0.3085  0.0011
16533SOL    HW151019   1.332   2.701   5.867  1.4493  0.7085  1.0014
16533SOL    HW251020   1.469   2.636   5.862  1.2355  0.3296 -0.3220
16534SOL     OW51021   3.527   0.161   1.670  0.3327  0.0946  0.3355
16534SOL    HW151022   3.552   0.164   1.762 -1.2858 -1.3682  0.8695
16534SOL    HW251023   3.588   0.097   1.631  1.3863  1.1272  0.2207
16535SOL     OW51024   5.445   7.403   6.714 -0.4613 -0.2432  0.6030
16535SOL    HW151025   5.363   7.367   6.746 -1.4382 -0.1412 -1.5891
16535SOL    HW251026   5.445   7.383   6.620  0.7870  2.0025  0.0478
16536SOL     OW51027   5.479   3.824   6.448 -0.2456 -0.6568 -0.3241
16536SOL    HW151028   5.421   3.750   6.466 -1.0831  0.0782  0.1254
16536SOL    HW251029   5.445   3.862   6.367  0.2154 -0.7900 -0.5833
16537SOL     OW51030   6.600   2.026   1.783 -0.4052  0.1992 -0.2496
16537SOL    HW151031   6.546   2.018   1.705 -1.4823 -0.1436  0.5061
16537SOL    HW251032   6.546   1.991   1.854  0.8649 -0.2788  0.5185
16538SOL     OW51033   5.709   6.751   6.889 -0.1284  0.0291  0.2035
16538SOL    HW151034   5.691   6.819   6.824 -0.2014  1.2048  1.4260
16538SOL    HW251035   5.622   6.724   6.920 -0.0525  0.2318  0.5897
16539SOL     OW51036   5.456   4.350   0.160 -0.1198 -0.1111  0.1998
16539SOL    HW151037   5.535   4.303   0.132  0.1323 -0.4452  1.4169
16539SOL    HW251038   5.393   4.335   0.090  0.3310 -1.3225  0.0347
16540SOL     OW51039   5.279   0.699   1.417 -0.1945  0.2168 -0.0041
16540SOL    HW151040   5.185   0.681   1.407 -0.1765  0.2151 -0.1738
16540SOL    HW251041   5.302   0.749   1.338 -0.0434  0.1767  0.0156
16541SOL     OW51042   3.347   1.327   5.587  0.6739  0.4399 -0.4306
16541SOL    HW151043   3.413   1.348   5.522 -0.6597  0.5348 -1.7936
16541SOL    HW251044   3.317   1.239   5.563  0.0774  0.5239 -0.0153
16542SOL     OW51045   4.137   3.249   4.840  0.2259 -0.1725 -0.2172
16542SOL    HW151046   4.188   3.216   4.914 -0.8705 -1.4556  0.0264
16542SOL    HW251047   4.199   3.296   4.786  1.6679 -1.6564  0.0718
16543SOL     OW51048   7.533   2.528   6.398 -0.1078  0.5191 -0.2648
16543SOL    HW151049   7.591   2.455   6.380 -1.4102 -0.3461 -1.1235
16543SOL    HW251050   7.459   2.490   6.445  0.0289  1.6076  0.8867
16544SOL     OW51051   2.211   4.587   4.269  0.0341  0.3377  0.0423
16544SOL    HW151052   2.233   4.512   4.325  1.4404 -0.7379 -1.8182
16544SOL    HW251053   2.205   4.661   4.328  2.0315 -0.6334  1.5566
16545SOL     OW51054   3.713   2.590   6.094 -0.4444 -0.1090 -0.3982
16545SOL    HW151055   3.637   2.588   6.152 -0.1229  0.6382  0.0758
16545SOL    HW251056   3.777   2.643   6.142  1.8530 -3.7716  0.9828
16546SOL     OW51057   7.217   5.742   0.396  0.1425  0.2022 -0.3237
16546SOL    HW151058   7.268   5.779   0.324  1.5415 -0.9478  0.0285
16546SOL    HW251059   7.178   5.663   0.359 -0.0974  0.2423 -0.1541
16547SOL     OW51060   5.695   7.995   7.812 -0.3129  0.0659  0.0941
16547SOL    HW151061   5.782   8.035   7.813 -0.4260  0.4327 -1.3672
16547SOL    HW251062   5.703   7.916   7.864  0.3897  1.0693  1.5546
16548SOL     OW51063   6.706   6.893   7.616  0.0859 -0.3236  0.0316
16548SOL    HW151064   6.670   6.947   7.546 -0.9195 -0.6169  0.3106
16548SOL    HW251065   6.769   6.950   7.661 -2.4566  1.4214  1.6637
16549SOL     OW51066   3.054   7.971   1.415 -0.2750 -0.0939 -0.4221
16549SOL    HW151067   3.046   7.911   1.489 -0.3175  1.2284  0.6868
16549SOL    HW251068   3.145   7.960   1.385 -0.6101 -1.5319 -1.0042
16550SOL     OW51069   8.050   2.766   0.670  0.1642 -0.1972  0.2542
16550SOL    HW151070   8.110   2.827   0.627  0.1808 -0.3823  0.0098
16550SOL    HW251071   8.024   2.706   0.600  0.9827 -1.1249  0.7276
16551SOL     OW51072   5.354   0.981   1.568  0.2492 -0.8880 -0.5268
16551SOL    HW151073   5.322   1.045   1.505  1.2401  1.6812  1.4053
16551SOL    HW251074   5.439   0.953   1.534  1.1095  1.0219 -0.0800
16552SOL     OW51075   6.788   4.579   7.105 -0.1210  0.1690  0.5132
16552SOL    HW151076   6.879   4.592   7.078 -0.3131 -0.2594 -0.3759
16552SOL    HW251077   6.767   4.657   7.156  0.5107  0.6281  0.0919
16553SOL     OW51078   5.963   6.690   0.426  0.1866 -0.1399 -0.0525
16553SOL    HW151079   5.878   6.683   0.383 -0.6002 -1.5088  1.6374
16553SOL    HW251080   5.967   6.780   0.458 -0.5067  0.0048 -0.3588
16554SOL     OW51081   3.927   0.752   2.956  0.1567 -0.2484 -0.1277
16554SOL    HW151082   3.974   0.742   3.038  0.6596  1.0478 -0.2273
16554SOL    HW251083   3.867   0.678   2.953 -0.6589  0.2632  1.9466
16555SOL     OW51084   5.692   1.502   2.887 -0.1041 -0.8034 -0.1951
16555SOL    HW151085   5.741   1.576   2.852  0.4111 -0.7593  0.5974
16555SOL    HW251086   5.606   1.538   2.907  0.3867 -0.2063  0.9296
16556SOL     OW51087   4.125   5.702   4.208 -0.0222 -0.0813 -0.0322
16556SOL    HW151088   4.210   5.721   4.247 -0.2491 -0.4674  0.6628
16556SOL    HW251089   4.146   5.658   4.125  0.4690  1.2465 -0.6457
16557SOL     OW51090   4.655   4.551   0.248 -0.2554 -0.0205 -0.0634
16557SOL    HW151091   4.709   4.472   0.246  1.5818  1.1567 -0.0186
16557SOL    HW251092   4.718   4.623   0.257 -1.6946  1.6013 -1.9464
16558SOL     OW51093   7.026   3.319   1.919 -0.4804  0.1790  0.0815
16558SOL    HW151094   7.036   3.295   2.011  0.3386  0.5677  0.1015
16558SOL    HW251095   6.954   3.264   1.887 -1.4618  0.7507  1.2094
16559SOL     OW51096   4.753   8.004   1.967  0.3215 -0.1954  0.1245
16559SOL    HW151097   4.665   7.968   1.964  0.2312  0.0435 -0.2934
16559SOL    HW251098   4.798   7.963   1.893  0.7975 -0.9004  0.7882
16560SOL     OW51099   6.754   1.116   4.645  0.0906 -0.0340  0.4527
16560SOL    HW151100   6.664   1.090   4.664  0.2230 -0.7792  0.0872
16560SOL    HW251101   6.804   1.086   4.720  0.0273  0.4566  0.6962
16561SOL     OW51102   6.376   0.756   3.427  0.0622  0.0212  0.5713
16561SOL    HW151103   6.356   0.804   3.346  1.5102  0.2424  0.2997
16561SOL    HW251104   6.307   0.780   3.488  0.1833  1.6417  0.1025
16562SOL     OW51105   1.097   5.318   2.767 -0.2822  0.5170  0.5311
16562SOL    HW151106   1.022   5.356   2.721  1.2657  2.6458 -0.4356
16562SOL    HW251107   1.157   5.392   2.780  3.4813 -1.6675 -2.3878
16563SOL     OW51108   5.408   6.687   2.853 -0.2000 -0.1171 -0.5375
16563SOL    HW151109   5.410   6.712   2.946  0.2717  1.1220 -0.8560
16563SOL    HW251110   5.316   6.669   2.835 -0.7060  2.0093 -0.3862
16564SOL     OW51111   7.378   4.441   1.076 -0.2792  0.3774  0.2943
16564SOL    HW151112   7.332   4.396   1.006  1.3272  0.9261 -1.2149
16564SOL    HW251113   7.315   4.505   1.110 -2.3005 -2.2964  1.9163
16565SOL     OW51114   5.864   3.400   1.200 -0.2370 -0.3520  0.0143
16565SOL    HW151115   5.875   3.494   1.184 -0.4497 -0.1961  0.7682
16565SOL    HW251116   5.941   3.360   1.160  0.6604  0.2889  1.0559
16566SOL     OW51117   7.935   4.328   7.740  0.0084 -0.6521 -0.0190
16566SOL    HW151118   7.975   4.361   7.660  3.1320  0.6386  1.8794
16566SOL    HW251119   7.877   4.258   7.711 -0.5288  1.0348 -3.5262
16567SOL     OW51120   1.077   5.833   1.506  0.4144  0.2305 -0.3550
16567SOL    HW151121   1.170   5.844   1.486  0.3728 -0.0484 -0.6943
16567SOL    HW251122   1.075   5.808   1.599  0.7785 -1.3672 -0.7555
16568SOL     OW51123   3.576   3.487   6.772 -0.4124  0.1913  0.0856
16568SOL    HW151124   3.537   3.565   6.812  0.6981  0.9314 -0.2112
16568SOL    HW251125   3.637   3.455   6.838 -0.1821  0.1276 -0.1586
16569SOL     OW51126   5.136   4.013   4.248  0.1648  0.2832 -0.1308
16569SOL    HW151127   5.167   3.960   4.175  0.6514 -0.9375  0.9120
16569SOL    HW251128   5.046   3.983   4.262  0.7004 -0.9105  0.9733
16570SOL     OW51129   1.639   0.160   1.311 -0.5215 -0.0733  0.3246
16570SOL    HW151130   1.682   0.212   1.243  0.8457 -1.7195 -0.1513
16570SOL    HW251131   1.695   0.171   1.388 -1.7143  1.2643  1.0503
16571SOL     OW51132   4.829   0.039   5.692 -0.1674  0.1123 -0.2278
16571SOL    HW151133   4.905   0.073   5.646 -1.7870  0.9203 -2.5007
16571SOL    HW251134   4.761   0.105   5.678 -1.8402 -1.4771  0.0151
16572SOL     OW51135   5.323   0.342   5.628 -0.3354 -0.8070  0.4653
16572SOL    HW151136   5.270   0.385   5.561  0.0898  1.2321  1.3364
16572SOL    HW251137   5.279   0.364   5.710  1.9227  1.2753  1.2562
16573SOL     OW51138   1.163   0.664   2.047 -0.0971 -0.1973  0.8520
16573SOL    HW151139   1.079   0.624   2.069 -0.4758  0.5255  0.7497
16573SOL    HW251140   1.185   0.629   1.961  0.7283 -1.9849  1.7243
16574SOL     OW51141   1.306   4.214   7.315 -0.0353 -0.0164 -0.5724
16574SOL    HW151142   1.298   4.307   7.295  2.1317  0.1534 -0.9808
16574SOL    HW251143   1.256   4.170   7.247  0.3051  0.8202 -1.3866
16575SOL     OW51144   6.863   8.014   5.945  0.4500  0.2698 -0.3945
16575SOL    HW151145   6.794   7.947   5.949  1.2346 -0.6700 -1.7075
16575SOL    HW251146   6.846   8.059   5.862  0.3169  1.2989  0.1771
16576SOL     OW51147   7.069   1.257   1.474 -0.0024  0.1444 -0.3531
16576SOL    HW151148   7.133   1.291   1.536 -1.5871  1.0226  0.8951
16576SOL    HW251149   7.093   1.165   1.463  2.2415  0.7459 -1.0185
16577SOL     OW51150   5.988   1.741   3.240 -0.2591 -0.1731  0.3387
16577SOL    HW151151   5.958   1.652   3.220 -0.0642  0.0986 -1.2916
16577SOL    HW251152   5.916   1.781   3.288 -1.1328 -0.6157 -0.5646
16578SOL     OW51153   7.441   4.987   1.674  0.3501 -0.2051  0.0749
16578SOL    HW151154   7.402   5.072   1.651  0.6605 -0.2769 -0.7809
16578SOL    HW251155   7.412   4.928   1.604  0.3309 -0.7476  0.5391
16579SOL     OW51156   5.535   1.165   0.718 -0.1188  0.1298  0.3928
16579SOL    HW151157   5.488   1.149   0.636  0.0023 -2.3457  0.7387
16579SOL    HW251158   5.619   1.202   0.691  0.1267 -1.1233 -0.6750
16580SOL     OW51159   2.134   5.800   1.537  0.0599 -0.2692 -0.4119
16580SOL    HW151160   2.075   5.873   1.515  0.5137 -0.4858 -2.5730
16580SOL    HW251161   2.220   5.829   1.505  0.2113 -1.7896 -1.4818
16581SOL     OW51162   1.763   2.783   3.324  0.0785  0.7385 -0.3597
16581SOL    HW151163   1.831   2.719   3.345 -1.5098 -1.0108 -0.2872
16581SOL    HW251164   1.810   2.866   3.315  1.6294  0.7495  4.9196
16582SOL     OW51165   0.218   2.374   6.924 -0.4978 -0.0588 -0.7037
16582SOL    HW151166   0.199   2.286   6.955 -0.5884  0.3628  0.4603
16582SOL    HW251167   0.243   2.423   7.002  1.1137  0.5502 -1.5370
16583SOL     OW51168   4.834   7.565   6.920  0.3862  0.2159  0.0007
16583SOL    HW151169   4.775   7.562   6.995 -0.5019 -2.2320 -0.7099
16583SOL    HW251170   4.796   7.632   6.863  0.0559  0.8314  0.9269
16584SOL     OW51171   6.694   6.708   7.305 -0.0682  0.3781 -0.0155
16584SOL    HW151172   6.718   6.670   7.389  0.0649  2.4279  0.9379
16584SOL    HW251173   6.599   6.696   7.300  0.0783 -0.8393 -0.1771
16585SOL     OW51174   5.403   1.565   6.029 -0.3099  0.4921  0.0525
16585SOL    HW151175   5.427   1.644   5.982 -1.0720  0.7879  0.1455
16585SOL    HW251176   5.321   1.587   6.073 -0.1117 -0.0898  0.7366
16586SOL     OW51177   7.119   6.106   1.880  0.6983  0.0534 -0.0432
16586SOL    HW151178   7.175   6.116   1.957  0.1263 -1.6759  0.6483
16586SOL    HW251179   7.175   6.131   1.807  0.9900  2.6076  0.9431
16587SOL     OW51180   7.770   1.231   3.981  0.0736  0.2832  0.0647
16587SOL    HW151181   7.834   1.226   4.052  0.0207  0.6414  0.1403
16587SOL    HW251182   7.817   1.270   3.908  0.8247 -2.2591 -0.9103
16588SOL     OW51183   2.202   0.796   0.140  0.0614  0.0076 -0.2036
16588SOL    HW151184   2.162   0.753   0.064  2.2289  0.3858 -1.6643
16588SOL    HW251185   2.281   0.745   0.158 -0.2621  0.0911  1.6790
16589SOL     OW51186   0.768   1.001   4.112  0.2410  0.4828  0.0560
16589SOL    HW151187   0.836   0.979   4.048  1.1146  0.6938  0.8846
16589SOL    HW251188   0.690   1.017   4.059  0.6329 -0.5221 -0.8579
16590SOL     OW51189   4.486   5.737   0.194  0.0934 -1.0256 -0.2539
16590SOL    HW151190   4.462   5.814   0.245 -0.7457 -0.4976 -1.3873
16590SOL    HW251191   4.529   5.771   0.116  0.8467 -1.7822 -0.1873
16591SOL     OW51192   6.735   1.834   5.470  0.5763 -0.2106  0.2965
16591SOL    HW151193   6.699   1.903   5.525 -0.4727 -1.6939  1.5535
16591SOL    HW251194   6.708   1.858   5.381 -0.2426  0.7118  0.7700
16592SOL     OW51195   2.603   4.215   0.771 -0.3041 -0.1993  0.3559
16592SOL    HW151196   2.598   4.119   0.777  0.1549 -0.2451  0.0352
16592SOL    HW251197   2.571   4.246   0.855 -2.5567 -0.5750 -0.2897
16593SOL     OW51198   0.508   6.670   3.590  0.3169  0.1507 -0.2347
16593SOL    HW151199   0.461   6.726   3.528  1.4004  0.8903 -0.3998
16593SOL    HW251200   0.546   6.730   3.654  1.4062 -0.3814 -0.3561
16594SOL     OW51201   4.726   6.142   5.278  0.5903 -0.0978  0.2485
16594SOL    HW151202   4.688   6.221   5.318  0.4030 -0.0204 -0.0776
16594SOL    HW251203   4.653   6.101   5.231  0.1135 -1.6831  2.2331
16595SOL     OW51204   7.305   1.351   1.118  0.1770  0.8841 -0.1568
16595SOL    HW151205   7.318   1.414   1.188 -0.3016  0.2722  0.5002
16595SOL    HW251206   7.265   1.275   1.161  0.1991  0.3612 -1.0276
16596SOL     OW51207   4.143   1.064   7.743  0.0280  0.6655 -0.5560
16596SOL    HW151208   4.236   1.059   7.765 -0.0066  0.8546 -0.3644
16596SOL    HW251209   4.118   0.974   7.723  0.1722  0.5636 -0.2761
16597SOL     OW51210   5.081   0.769   7.781  0.2559  0.2619 -0.2271
16597SOL    HW151211   5.155   0.794   7.724 -0.4791  0.8992 -0.9261
16597SOL    HW251212   5.106   0.800   7.868  0.5322  1.0643 -0.5817
16598SOL     OW51213   0.880   1.239   0.558  0.2168 -0.1919 -0.6380
16598SOL    HW151214   0.928   1.219   0.478  2.1041 -2.4478  0.9365
16598SOL    HW251215   0.919   1.320   0.591  1.2585 -0.6793 -0.6600
16599SOL     OW51216   1.991   0.765   3.678 -0.1189 -0.2234  0.1983
16599SOL    HW151217   2.079   0.728   3.688 -0.3772 -0.4458  1.9920
16599SOL    HW251218   1.946   0.741   3.759 -1.4824  0.8569 -0.2087
16600SOL     OW51219   1.734   8.036   2.233 -0.3583  0.4135 -0.1810
16600SOL    HW151220   1.715   7.984   2.154  0.0303  0.5581 -0.3730
16600SOL    HW251221   1.669   8.007   2.297 -0.2903 -0.1448 -0.3597
16601SOL     OW51222   5.384   2.225   5.448 -0.3325 -0.2565 -0.3763
16601SOL    HW151223   5.331   2.300   5.474  0.1746 -0.2016  0.5427
16601SOL    HW251224   5.331   2.149   5.473  0.0680 -0.2024  0.6768
16602SOL     OW51225   4.927   7.041   0.000  0.6270  0.2461 -0.0246
16602SOL    HW151226   4.982   7.119  -0.001 -0.0179  0.7174 -1.6463
16602SOL    HW251227   4.988   6.968   0.013  1.3551  0.9265  0.4441
16603SOL     OW51228   3.113   2.659   7.191  0.3271 -0.7411 -0.2149
16603SOL    HW151229   3.037   2.694   7.144  0.5552  0.7320  0.4715
16603SOL    HW251230   3.187   2.678   7.134  0.5392  0.5876  0.4633
16604SOL     OW51231   0.603   7.245   4.244 -0.8507  0.4656 -0.7581
16604SOL    HW151232   0.698   7.233   4.239 -0.6010  1.0025  1.4795
16604SOL    HW251233   0.586   7.322   4.190 -0.1093  0.0175 -1.6644
16605SOL     OW51234   5.767   6.697   3.916  0.0935  0.2326 -0.5861
16605SOL    HW151235   5.824   6.633   3.873 -0.7012 -0.4155 -0.6892
16605SOL    HW251236   5.752   6.660   4.003 -1.0196 -0.1289 -0.9203
16606SOL     OW51237   5.894   1.858   0.051  0.9716 -0.6722  0.4329
16606SOL    HW151238   5.977   1.828   0.014  1.0841  0.6824 -0.4786
16606SOL    HW251239   5.832   1.788   0.029  1.8679 -1.7525  1.2249
16607SOL     OW51240   0.471   4.450   4.033 -0.8832  0.3445  0.2628
16607SOL    HW151241   0.501   4.365   4.066  0.8643  0.7330 -0.2096
16607SOL    HW251242   0.551   4.499   4.018 -1.8776  2.5854  1.7516
16608SOL     OW51243   5.478   7.669   1.168 -0.0607  0.2569 -0.3311
16608SOL    HW151244   5.404   7.615   1.140  0.7177 -0.6981 -0.6226
16608SOL    HW251245   5.438   7.747   1.206 -1.2250 -0.4491 -0.0520
16609SOL     OW51246   3.990   3.132   1.493  0.2172 -0.2415 -0.2053
16609SOL    HW151247   3.903   3.107   1.461  0.3212 -0.0957 -0.5988
16609SOL    HW251248   3.985   3.227   1.506  0.1248 -0.3195  0.3719
16610SOL     OW51249   3.480   1.037   5.586  0.1798  0.1527 -0.6033
16610SOL    HW151250   3.494   1.063   5.677 -0.2276  0.1245 -0.5295
16610SOL    HW251251   3.387   1.056   5.570 -0.0945 -1.1229 -0.5983
16611SOL     OW51252   1.661   5.795   4.260 -0.3608  0.1248  0.5064
16611SOL    HW151253   1.595   5.766   4.197 -0.7418  0.1246  0.9024
16611SOL    HW251254   1.745   5.774   4.218 -0.6226 -0.7377  0.4040
16612SOL     OW51255   4.214   1.587   0.891 -0.4172  0.0596  0.1605
16612SOL    HW151256   4.126   1.587   0.853 -0.3293  0.1729 -0.0387
16612SOL    HW251257   4.208   1.648   0.965 -0.3482  0.5125 -0.2067
16613SOL     OW51258   0.744   3.973   7.371  0.0364  0.1885  0.0966
16613SOL    HW151259   0.786   4.058   7.358 -0.5073  0.0536 -3.3879
16613SOL    HW251260   0.653   3.986   7.345  0.4167 -1.8660 -2.7346
16614SOL     OW51261   3.939   4.309   2.351 -0.0866 -0.3014 -0.2397
16614SOL    HW151262   3.993   4.374   2.307 -0.2134 -0.6298 -0.8816
16614SOL    HW251263   3.850   4.326   2.319  0.0352 -1.5016 -1.2904
16615SOL     OW51264   6.476   3.466   1.536 -0.1440  0.1220  0.3879
16615SOL    HW151265   6.515   3.543   1.494  0.4063 -0.3065  0.1096
16615SOL    HW251266   6.503   3.392   1.481 -1.3268 -0.1974  0.1964
16616SOL     OW51267   4.789   6.196   5.900  0.3362 -0.1312  0.3434
16616SOL    HW151268   4.778   6.149   5.983 -1.8420  0.2837  0.3615
16616SOL    HW251269   4.750   6.138   5.834 -0.9955  0.9389  0.1451
16617SOL     OW51270   3.196   5.219   1.908  0.2977  0.6262  0.2112
16617SOL    HW151271   3.252   5.176   1.844 -2.0926 -3.0448  0.2561
16617SOL    HW251272   3.136   5.273   1.855  1.2694  1.3607 -0.1668
16618SOL     OW51273   0.251   4.813   5.845  0.1749  0.8032  0.5070
16618SOL    HW151274   0.326   4.803   5.903 -0.3466 -0.1517  1.0521
16618SOL    HW251275   0.244   4.729   5.800 -0.4264  0.9541  0.3030
16619SOL     OW51276   4.178   3.638   2.219  0.5328  0.2354 -0.1249
16619SOL    HW151277   4.105   3.680   2.264  0.6735 -0.2111  0.5434
16619SOL    HW251278   4.159   3.650   2.126 -0.0522  0.6925  0.0456
16620SOL     OW51279   2.060   3.507   0.244 -0.2292 -0.2764 -0.4933
16620SOL    HW151280   2.047   3.425   0.195 -0.7419 -0.6476  0.2556
16620SOL    HW251281   2.079   3.479   0.333 -1.7795  0.4446  0.0820
16621SOL     OW51282   2.149   1.606   4.046 -0.3734 -0.6812  0.0408
16621SOL    HW151283   2.097   1.680   4.077 -0.0112 -0.3959 -0.0429
16621SOL    HW251284   2.205   1.583   4.120  1.1648  0.5923 -0.6821
16622SOL     OW51285   6.971   3.577   7.417  0.0728 -0.5049 -0.0022
16622SOL    HW151286   6.977   3.660   7.466 -0.5023 -0.2253 -0.3858
16622SOL    HW251287   6.931   3.602   7.334  0.2444 -1.1165 -0.2696
16623SOL     OW51288   2.750   5.207   1.883 -0.0764  0.2980 -0.2327
16623SOL    HW151289   2.736   5.267   1.809  0.4444  2.1950  1.1226
16623SOL    HW251290   2.704   5.248   1.956 -0.7430 -1.6414  0.4773
16624SOL     OW51291   0.571   4.696   1.882 -0.1334 -0.6388  0.1761
16624SOL    HW151292   0.549   4.701   1.975 -0.4458  0.0476  0.0684
16624SOL    HW251293   0.487   4.688   1.838  0.0981 -2.8512  0.0517
16625SOL     OW51294   1.483   5.527   3.105 -0.1244  0.1018 -0.0629
16625SOL    HW151295   1.438   5.611   3.108  1.7102  1.1293 -0.2772
16625SOL    HW251296   1.576   5.548   3.109  0.3914 -2.0084  1.8820
16626SOL     OW51297   1.176   0.042   1.560  0.1262  0.1015 -0.1277
16626SOL    HW151298   1.246   0.072   1.503  0.5222  0.3058  0.4508
16626SOL    HW251299   1.182   0.099   1.637 -1.5740  1.0640 -0.6485
16627SOL     OW51300   6.655   4.999   2.820 -0.0043  0.0808  0.1871
16627SOL    HW151301   6.723   4.934   2.798  0.2287 -0.2664  1.8492
16627SOL    HW251302   6.668   5.018   2.912 -1.0721  1.3546  0.1092
16628SOL     OW51303   2.582   6.583   4.305  0.0398  0.3238  0.2373
16628SOL    HW151304   2.537   6.611   4.226  0.8753  1.8382  0.2672
16628SOL    HW251305   2.587   6.487   4.297 -2.2274  0.1944 -0.2281
16629SOL     OW51306   7.651   1.391   7.054 -0.2941  0.3828 -0.3267
16629SOL    HW151307   7.583   1.342   7.100 -1.1402 -0.5937 -2.5344
16629SOL    HW251308   7.694   1.327   6.997  0.9159  1.4940 -0.7275
16630SOL     OW51309   2.555   1.462   2.608 -0.4709  0.2509 -0.9122
16630SOL    HW151310   2.619   1.404   2.649  0.2254  2.4131  1.2677
16630SOL    HW251311   2.471   1.418   2.620  0.2564 -1.3251 -1.3512
16631SOL     OW51312   3.778   3.112   3.281 -0.2337  0.3953 -0.0398
16631SOL    HW151313   3.804   3.196   3.243  1.3478 -0.5613 -1.2110
16631SOL    HW251314   3.682   3.111   3.275 -0.2537  1.9202 -0.3904
16632SOL     OW51315   7.704   5.376   0.803  0.4799  0.2085 -0.1180
16632SOL    HW151316   7.642   5.440   0.767 -0.8355 -0.4856  0.8092
16632SOL    HW251317   7.672   5.291   0.774  0.6043 -0.2084  0.9031
16633SOL     OW51318   6.037   5.779   6.872 -0.3294  0.6086 -0.0146
16633SOL    HW151319   6.013   5.848   6.811  1.4668  0.8535 -0.5168
16633SOL    HW251320   6.032   5.698   6.820 -0.4699  0.6086 -0.0008
16634SOL     OW51321   7.500   2.750   7.679  0.6285 -0.6687  0.1403
16634SOL    HW151322   7.466   2.812   7.743  0.3690 -0.0786 -0.5514
16634SOL    HW251323   7.572   2.797   7.637  0.3838 -0.8023 -0.4384
16635SOL     OW51324   1.554   2.828   0.723 -0.5053 -0.1816 -0.0628
16635SOL    HW151325   1.557   2.923   0.730  0.9135 -0.2087 -0.0758
16635SOL    HW251326   1.500   2.800   0.798  0.0300  0.5640  0.6136
16636SOL     OW51327   1.769   7.763   4.791  0.5459 -0.0184  0.0419
16636SOL    HW151328   1.703   7.698   4.817  0.3783 -0.1481 -0.6745
16636SOL    HW251329   1.727   7.848   4.807  0.3022 -0.0995 -0.1523
16637SOL     OW51330   1.206   5.868   7.926  0.7886 -0.0589 -0.1948
16637SOL    HW151331   1.241   5.914   8.002  1.3993 -0.7266 -0.0483
16637SOL    HW251332   1.163   5.790   7.962  0.7370 -0.1793 -0.5043
16638SOL     OW51333   7.265   6.222   5.386 -0.1805  0.0806  0.1501
16638SOL    HW151334   7.293   6.260   5.303 -1.2065 -0.0220 -0.2601
16638SOL    HW251335   7.307   6.277   5.453  0.7011  0.1244 -0.4227
16639SOL     OW51336   6.996   0.382   4.586 -0.5712  0.1185 -0.1111
16639SOL    HW151337   7.085   0.356   4.611 -0.5237 -0.6870 -1.0858
16639SOL    HW251338   7.008   0.458   4.529 -0.5160  0.1312 -0.0827
16640SOL     OW51339   4.722   2.913   2.680  0.2943 -0.3514  0.1763
16640SOL    HW151340   4.813   2.898   2.655  0.7448  2.2695 -0.0255
16640SOL    HW251341   4.712   3.008   2.679 -2.2997 -0.5397  0.7790
16641SOL     OW51342   6.481   0.582   4.669 -0.0848 -0.0069 -0.4806
16641SOL    HW151343   6.565   0.560   4.629 -0.1296  0.7948 -1.0501
16641SOL    HW251344   6.417   0.526   4.625  0.2986 -1.5330  0.8423
16642SOL     OW51345   5.934   2.662   6.862  0.3262 -0.4991  0.4481
16642SOL    HW151346   5.868   2.592   6.867 -0.6147  0.4482  2.6725
16642SOL    HW251347   6.015   2.620   6.891 -0.1111 -0.8271  1.2294
16643SOL     OW51348   0.497   0.500   2.724 -0.8230  0.0101 -0.0165
16643SOL    HW151349   0.467   0.457   2.804 -0.1211  0.9898  0.7972
16643SOL    HW251350   0.421   0.496   2.665 -1.1639 -1.2095  0.4879
16644SOL     OW51351   1.739   0.721   5.165 -0.1440  0.3365 -0.1269
16644SOL    HW151352   1.662   0.685   5.121 -0.5222 -0.2718  1.0138
16644SOL    HW251353   1.711   0.738   5.254  0.9811  0.3025  0.2571
16645SOL     OW51354   0.778   2.612   5.178 -0.5429 -0.2184 -0.2367
16645SOL    HW151355   0.786   2.519   5.200 -3.0405 -0.2197  1.1009
16645SOL    HW251356   0.856   2.653   5.213  0.5122 -1.7640 -0.6813
16646SOL     OW51357   3.059   6.545   6.552 -0.1158 -0.3914  0.4896
16646SOL    HW151358   2.970   6.532   6.584  0.7095 -1.3540  2.5377
16646SOL    HW251359   3.106   6.465   6.576  0.9112 -0.7279 -2.2173
16647SOL     OW51360   5.556   5.002   2.523 -0.1268 -0.4965  0.4291
16647SOL    HW151361   5.522   5.058   2.452  0.3805 -0.6621  0.0471
16647SOL    HW251362   5.595   4.927   2.478  1.0002 -0.1745  0.8258
16648SOL     OW51363   3.842   4.440   1.604  0.0799  0.0961 -0.0894
16648SOL    HW151364   3.878   4.359   1.640 -0.5462 -0.5376 -0.8442
16648SOL    HW251365   3.755   4.447   1.644 -1.2538 -1.4102 -2.4954
16649SOL     OW51366   6.453   5.874   6.485 -0.4483 -0.7694 -0.1447
16649SOL    HW151367   6.490   5.933   6.420 -0.9068  0.3891  0.6142
16649SOL    HW251368   6.472   5.786   6.452  1.5839 -0.2227 -0.5488
16650SOL     OW51369   6.983   6.173   3.299  0.1197  0.1124  0.4923
16650SOL    HW151370   7.067   6.216   3.285  0.4059 -1.2109 -2.5482
16650SOL    HW251371   7.005   6.097   3.353  0.7162  0.2771  0.4923
16651SOL     OW51372   3.067   6.845   5.394  0.3982  0.3204 -0.3912
16651SOL    HW151373   3.091   6.832   5.302 -1.4721 -2.2682 -0.6181
16651SOL    HW251374   3.094   6.764   5.438 -2.3563 -0.2801  0.4317
16652SOL     OW51375   2.244   3.318   7.072  0.1901 -0.2417 -0.2235
16652SOL    HW151376   2.213   3.344   6.985 -0.5883  1.0437  0.4075
16652SOL    HW251377   2.292   3.394   7.105  2.3027 -1.4659 -0.3339
16653SOL     OW51378   1.273   7.277   2.273  0.3289  0.3814 -0.3595
16653SOL    HW151379   1.215   7.283   2.349  0.2604  1.3778 -0.4755
16653SOL    HW251380   1.353   7.237   2.308  1.2690  3.0555  0.8837
16654SOL     OW51381   1.266   3.453   0.306 -0.3879  0.3735 -0.2172
16654SOL    HW151382   1.237   3.536   0.343  0.9957  0.5955  0.4278
16654SOL    HW251383   1.303   3.405   0.380  0.2068 -0.1824 -0.8519
16655SOL     OW51384   4.284   1.767   6.961 -0.9603  0.1342 -0.1454
16655SOL    HW151385   4.314   1.677   6.966  0.3840  0.4849 -1.3384
16655SOL    HW251386   4.207   1.770   7.019 -0.9570 -1.7174  0.0057
16656SOL     OW51387   6.961   3.724   4.226 -0.2030  0.0130 -0.3348
16656SOL    HW151388   6.902   3.704   4.298 -0.1935  0.4627 -0.1966
16656SOL    HW251389   7.034   3.663   4.236  0.0388  0.4063  0.3322
16657SOL     OW51390   7.171   0.366   5.885 -0.3061  0.6045 -0.3706
16657SOL    HW151391   7.220   0.448   5.894 -0.2482  0.4442  0.9985
16657SOL    HW251392   7.101   0.386   5.822  0.6368  1.2428 -1.2419
16658SOL     OW51393   7.203   7.761   4.347 -0.0774 -0.4661 -0.0965
16658SOL    HW151394   7.208   7.679   4.396 -0.4398 -1.0393 -1.0030
16658SOL    HW251395   7.289   7.772   4.307 -0.7202 -1.6554 -1.9208
16659SOL     OW51396   6.878   2.197   7.958 -0.8119 -0.0928  0.8520
16659SOL    HW151397   6.842   2.277   7.920 -0.8816 -1.2739 -1.7889
16659SOL    HW251398   6.802   2.139   7.968 -0.3284 -0.9835 -0.4424
16660SOL     OW51399   0.851   1.083   1.680  0.1997  0.0844 -0.7263
16660SOL    HW151400   0.796   1.130   1.742  0.9270 -1.3434  1.0830
16660SOL    HW251401   0.888   1.151   1.624 -0.6966  1.3865  0.2076
16661SOL     OW51402   7.370   5.096   2.701 -0.1343  1.0100 -0.8613
16661SOL    HW151403   7.371   5.075   2.794  1.3110 -0.8725 -1.2397
16661SOL    HW251404   7.368   5.191   2.697 -1.2943  1.1101  1.0614
16662SOL     OW51405   5.138   4.528   0.826  0.1951  0.6760  0.1630
16662SOL    HW151406   5.055   4.575   0.813  0.2243  1.4418  2.3526
16662SOL    HW251407   5.168   4.556   0.912  3.6371  1.7887 -1.2308
16663SOL     OW51408   4.583   1.253   7.205  0.1086  0.8260  0.3477
16663SOL    HW151409   4.656   1.268   7.144 -1.1364  0.9601 -1.1675
16663SOL    HW251410   4.622   1.263   7.292  2.2181 -0.5029 -0.3603
16664SOL     OW51411   0.525   7.486   8.043  0.3984 -0.2718  0.3106
16664SOL    HW151412   0.614   7.454   8.055  0.5987  0.2778  0.3262
16664SOL    HW251413   0.535   7.564   7.988 -0.1968 -0.9778 -0.8452
16665SOL     OW51414   5.757   5.241   7.883 -0.0103 -0.2436  0.5778
16665SOL    HW151415   5.803   5.251   7.967  0.2317 -0.1651  0.4356
16665SOL    HW251416   5.796   5.308   7.826  1.7253 -2.0189 -0.4333
16666SOL     OW51417   3.354   4.452   7.591 -0.3225 -0.2915 -0.3706
16666SOL    HW151418   3.313   4.458   7.504  0.9941 -0.0824 -1.0175
16666SOL    HW251419   3.287   4.481   7.652 -0.6369  1.6201 -1.5390
16667SOL     OW51420   2.985   0.249   2.751  0.0778  0.2325 -0.1418
16667SOL    HW151421   2.940   0.229   2.833  1.1836 -0.0530  0.4058
16667SOL    HW251422   2.923   0.221   2.683 -0.4958 -0.3303  0.5911
16668SOL     OW51423   2.548   3.288   0.104  0.1767  0.7989 -0.0273
16668SOL    HW151424   2.456   3.262   0.118  0.4170 -0.1075 -0.0665
16668SOL    HW251425   2.552   3.316   0.013  0.1901 -0.2939 -0.3680
16669SOL     OW51426   7.651   7.255   4.417  0.3305 -0.3703  0.4444
16669SOL    HW151427   7.635   7.274   4.509  0.2803 -1.0343  0.5765
16669SOL    HW251428   7.726   7.310   4.394  0.2000 -0.0341  0.8174
16670SOL     OW51429   6.475   6.067   4.813  0.5001 -0.3255 -0.1418
16670SOL    HW151430   6.469   6.137   4.877  0.6430 -0.0647 -0.4124
16670SOL    HW251431   6.435   5.991   4.856 -1.7002  0.4700 -0.6608
16671SOL     OW51432   5.006   1.533   7.375 -0.1734 -0.4031 -0.5362
16671SOL    HW151433   5.052   1.556   7.294  0.4282  1.4460  0.2891
16671SOL    HW251434   5.058   1.462   7.413  1.7678  1.2813  0.1039
16672SOL     OW51435   6.638   0.276   4.150 -0.0294 -0.1241  0.7481
16672SOL    HW151436   6.638   0.229   4.234 -0.6198  1.5698  1.7314
16672SOL    HW251437   6.613   0.209   4.086 -0.7119 -1.1971  2.0776
16673SOL     OW51438   7.294   6.072   0.203 -0.4447  0.3740 -0.4586
16673SOL    HW151439   7.348   6.009   0.155 -1.5413 -0.5136 -0.5515
16673SOL    HW251440   7.312   6.156   0.160  1.3337  0.2349 -0.0824
16674SOL     OW51441   3.618   7.872   2.836  0.3671  0.2996 -0.0626
16674SOL    HW151442   3.695   7.814   2.842  1.5455  1.7398 -0.7445
16674SOL    HW251443   3.627   7.915   2.752 -2.4058 -1.0709 -1.2005
16675SOL     OW51444   6.613   3.033   0.189 -0.0005  0.1332  0.3305
16675SOL    HW151445   6.545   3.069   0.132 -0.7504 -0.3291  0.9121
16675SOL    HW251446   6.593   2.940   0.195  0.7000 -0.0151  0.4957
16676SOL     OW51447   4.303   5.596   7.808 -0.6880  0.5916 -0.1206
16676SOL    HW151448   4.390   5.580   7.772 -1.5242 -0.9832 -1.5307
16676SOL    HW251449   4.305   5.555   7.895  0.6380  2.5240  0.8381
16677SOL     OW51450   1.226   7.380   4.436  0.2357  0.2850  0.4590
16677SOL    HW151451   1.212   7.351   4.526  1.9218  0.9761  0.9828
16677SOL    HW251452   1.183   7.466   4.432 -2.5544 -1.0111 -0.3687
16678SOL     OW51453   4.632   0.924   1.329  0.5232 -0.2254  0.5067
16678SOL    HW151454   4.550   0.957   1.294  0.7740  0.3357  0.4275
16678SOL    HW251455   4.699   0.954   1.267  0.9577  0.6939  1.3889
16679SOL     OW51456   1.189   4.235   1.115  0.2054  0.8817  0.1659
16679SOL    HW151457   1.136   4.164   1.150  1.6372 -0.3484 -0.0933
16679SOL    HW251458   1.227   4.200   1.035  0.6783  2.0392 -0.1354
16680SOL     OW51459   3.068   2.776   2.499  0.8066  0.6815  0.1991
16680SOL    HW151460   3.120   2.706   2.539  0.0200  0.1205  0.2435
16680SOL    HW251461   3.019   2.733   2.429  1.1760  1.4125 -0.5260
16681SOL     OW51462   6.537   2.682   2.489  0.2666 -0.1761  0.1932
16681SOL    HW151463   6.479   2.743   2.443  0.5246 -0.5867 -0.6972
16681SOL    HW251464   6.610   2.737   2.519 -0.8303  0.4619  1.8590
16682SOL     OW51465   5.544   3.964   7.185  0.9759  0.2962  0.0027
16682SOL    HW151466   5.558   4.018   7.263 -0.5833  1.4109 -0.4318
16682SOL    HW251467   5.457   3.990   7.154  0.3786 -2.1069 -0.5460
16683SOL     OW51468   2.832   0.780   1.828  0.0194  0.3986  0.1823
16683SOL    HW151469   2.869   0.718   1.891  0.1902  0.4154  0.0983
16683SOL    HW251470   2.809   0.857   1.880  0.3468  0.4910  0.1892
16684SOL     OW51471   1.458   2.697   4.721 -0.0467  0.0254 -0.3286
16684SOL    HW151472   1.392   2.674   4.655  0.2333  1.7326 -1.2632
16684SOL    HW251473   1.541   2.666   4.683  0.4253  2.8788 -1.9017
16685SOL     OW51474   6.766   6.526   5.008 -0.5347  0.2217 -0.0993
16685SOL    HW151475   6.752   6.612   4.966 -1.1525  0.7133  1.0594
16685SOL    HW251476   6.688   6.476   4.984 -0.4909  0.2114 -0.2221
16686SOL     OW51477   6.673   1.485   1.610  0.0044 -0.1404  0.2135
16686SOL    HW151478   6.696   1.396   1.635  2.0796 -0.1975 -1.5962
16686SOL    HW251479   6.757   1.531   1.604 -0.6862  0.9669 -2.1810
16687SOL     OW51480   5.959   6.721   1.230  0.2240 -0.4779  0.8514
16687SOL    HW151481   6.013   6.684   1.159 -1.2868 -0.4524 -0.3708
16687SOL    HW251482   6.014   6.714   1.308  1.0078 -2.8633  0.1707
16688SOL     OW51483   5.835   6.785   5.620  0.3295  0.4307  0.1320
16688SOL    HW151484   5.845   6.861   5.563 -0.4375 -0.5347 -1.3543
16688SOL    HW251485   5.851   6.710   5.564 -0.9893 -0.5863  1.0352
16689SOL     OW51486   4.975   1.562   3.899  0.4201 -0.2697  0.9208
16689SOL    HW151487   5.060   1.581   3.859  0.7258 -2.4517  0.4066
16689SOL    HW251488   4.994   1.545   3.991  0.2384  1.0491  1.2279
16690SOL     OW51489   2.655   3.411   2.490 -0.4148 -0.2161 -0.0877
16690SOL    HW151490   2.671   3.437   2.399  0.0850 -1.0247 -0.2383
16690SOL    HW251491   2.608   3.328   2.483 -0.3932 -0.2688  0.3975
16691SOL     OW51492   0.986   7.032   6.732 -0.0032  0.2904  0.2382
16691SOL    HW151493   1.024   7.017   6.645 -0.8788  0.6870 -0.2246
16691SOL    HW251494   0.988   6.946   6.774 -0.4459 -0.1096 -0.5347
16692SOL     OW51495   2.426   7.434   1.924  0.4757  0.2718 -0.3498
16692SOL    HW151496   2.510   7.389   1.917 -0.3103 -1.1186 -1.5502
16692SOL    HW251497   2.443   7.510   1.979  2.4722 -0.0649 -0.4459
16693SOL     OW51498   2.893   1.883   0.630  0.3107 -0.4680 -0.0819
16693SOL    HW151499   2.878   1.860   0.722  2.0454  2.2736  1.0328
16693SOL    HW251500   2.812   1.860   0.586 -0.4215 -2.2971  2.0269
16694SOL     OW51501   7.858   5.254   0.060 -0.2317  0.6497 -0.3537
16694SOL    HW151502   7.928   5.197   0.030 -0.5295 -1.8174  2.9993
16694SOL    HW251503   7.903   5.327   0.103  0.3607 -0.5879  1.2097
16695SOL     OW51504   2.580   0.925   0.280  0.3635 -0.3963  0.1269
16695SOL    HW151505   2.593   0.988   0.351 -2.3387  0.8624 -0.3663
16695SOL    HW251506   2.624   0.965   0.205 -0.4068  0.4042  0.0850
16696SOL     OW51507   0.387   2.983   4.665  0.6549  0.2345 -0.3220
16696SOL    HW151508   0.459   2.922   4.681  0.1428 -0.5855 -1.0492
16696SOL    HW251509   0.371   2.977   4.571 -1.4480 -0.8800  0.0581
16697SOL     OW51510   5.242   1.915   5.684 -0.1092  0.6447 -0.2383
16697SOL    HW151511   5.209   1.971   5.613 -3.6717 -1.8229 -0.7765
16697SOL    HW251512   5.184   1.933   5.758  1.7978  1.0971  1.2327
16698SOL     OW51513   5.336   6.399   3.913 -0.1178  0.2582 -0.3555
16698SOL    HW151514   5.322   6.372   4.004 -1.8952 -1.6895 -1.1243
16698SOL    HW251515   5.367   6.319   3.870  0.6510  1.1506 -1.4825
16699SOL     OW51516   7.712   2.263   2.671 -0.1624  1.0342  0.1243
16699SOL    HW151517   7.756   2.320   2.735 -1.1150  0.8451  0.9745
16699SOL    HW251518   7.627   2.304   2.657 -0.7880 -0.0538  0.6017
16700SOL     OW51519   7.779   1.929   4.547 -0.6367  0.0739 -0.9946
16700SOL    HW151520   7.705   1.882   4.586 -0.6109  0.4091 -0.5284
16700SOL    HW251521   7.812   1.984   4.618  1.1193 -1.3058 -0.6803
16701SOL     OW51522   4.231   6.992   5.522 -0.3453  0.1091  0.1602
16701SOL    HW151523   4.242   7.020   5.431 -0.4836  1.5753  0.5636
16701SOL    HW251524   4.199   6.902   5.516 -0.4506  0.2171 -1.2440
16702SOL     OW51525   5.188   5.024   6.570  0.4515 -0.3771  0.9364
16702SOL    HW151526   5.221   5.003   6.483 -1.1756  0.2424  0.1310
16702SOL    HW251527   5.188   5.120   6.573  0.0217 -0.3874  1.4188
16703SOL     OW51528   2.654   0.743   6.356 -0.1826 -0.4877  0.1075
16703SOL    HW151529   2.665   0.777   6.444 -0.9311 -0.2488  0.1208
16703SOL    HW251530   2.740   0.708   6.332  0.1373 -0.1615  0.7592
16704SOL     OW51531   1.377   4.767   2.148 -0.4889 -0.3541 -0.1289
16704SOL    HW151532   1.402   4.811   2.230 -0.2054 -1.6945  0.5317
16704SOL    HW251533   1.399   4.831   2.079  1.3367 -0.0342  0.6777
16705SOL     OW51534   5.290   4.006   0.667 -0.0709  0.0239  0.5617
16705SOL    HW151535   5.385   4.016   0.659 -0.3117  2.6432  0.2429
16705SOL    HW251536   5.260   3.984   0.579  0.3566 -2.6582  1.0135
16706SOL     OW51537   7.082   5.283   1.758 -0.3252 -0.3796 -0.2758
16706SOL    HW151538   7.007   5.252   1.810  0.0581  0.1072  0.5963
16706SOL    HW251539   7.091   5.375   1.782  1.3863 -0.7497  0.6872
16707SOL     OW51540   0.068   6.599   4.325  0.0241  0.2649  0.3145
16707SOL    HW151541   0.105   6.542   4.391  0.7563 -0.0348 -0.3333
16707SOL    HW251542   0.110   6.684   4.340 -1.1354  0.6963  1.3375
16708SOL     OW51543   6.730   2.197   3.924 -0.4972  0.0799 -0.8288
16708SOL    HW151544   6.765   2.223   4.009  0.2596 -0.9169 -0.8140
16708SOL    HW251545   6.806   2.197   3.866 -0.8442 -0.1194 -1.2839
16709SOL     OW51546   4.583   2.255   6.419 -0.3205  0.6876 -0.0736
16709SOL    HW151547   4.495   2.289   6.401  0.0727  0.7501 -2.0876
16709SOL    HW251548   4.637   2.289   6.348  1.4364  0.9228  1.3074
16710SOL     OW51549   2.851   2.410   5.569 -0.4925 -0.2551 -0.0541
16710SOL    HW151550   2.853   2.392   5.475 -4.7218  0.9251 -0.5929
16710SOL    HW251551   2.866   2.504   5.576  0.0843 -0.3812  0.5103
16711SOL     OW51552   1.032   7.137   6.156 -0.1048 -0.3199  0.0264
16711SOL    HW151553   1.074   7.069   6.102  0.5992 -0.2315  0.4522
16711SOL    HW251554   1.040   7.217   6.104 -0.1342 -0.3894 -0.0854
16712SOL     OW51555   0.554   3.632   7.572  0.0208 -0.0986  0.3898
16712SOL    HW151556   0.465   3.668   7.570 -0.2879 -0.8201 -1.5444
16712SOL    HW251557   0.547   3.556   7.631 -0.9199 -0.7169 -0.4751
16713SOL     OW51558   2.383   6.479   0.831  0.1743 -0.2862 -0.1827
16713SOL    HW151559   2.317   6.441   0.773 -1.4098  0.2075  1.1817
16713SOL    HW251560   2.423   6.404   0.875 -0.5068 -0.5387  0.0161
16714SOL     OW51561   1.770   6.432   7.651 -0.2377  0.0055 -0.1152
16714SOL    HW151562   1.803   6.508   7.698 -0.8952  0.3485 -0.1965
16714SOL    HW251563   1.676   6.433   7.668 -0.4642  0.0466 -1.3082
16715SOL     OW51564   2.931   4.831   3.849 -0.6094  0.3587 -0.5667
16715SOL    HW151565   2.866   4.793   3.907 -0.4591 -0.6528 -1.0463
16715SOL    HW251566   2.942   4.767   3.779  2.5019 -0.6137  0.6230
16716SOL     OW51567   0.926   7.557   1.278 -0.2617  0.1877 -1.0158
16716SOL    HW151568   1.012   7.529   1.309 -0.7071  0.0848  0.1923
16716SOL    HW251569   0.908   7.503   1.202  0.5410 -0.1123 -0.9954
16717SOL     OW51570   6.149   7.966   0.216  0.6024  0.5190 -0.3460
16717SOL    HW151571   6.178   8.016   0.292 -1.2325  0.3611  0.5159
16717SOL    HW251572   6.151   7.875   0.244  1.6745  0.2780 -1.1320
16718SOL     OW51573   0.903   4.376   6.156  0.0732 -0.0381  0.5293
16718SOL    HW151574   0.907   4.465   6.121 -0.2503 -0.4459 -0.6073
16718SOL    HW251575   0.855   4.385   6.239 -1.7327  0.6015 -0.5110
16719SOL     OW51576   2.671   2.374   4.304 -0.1045  0.0385  0.5055
16719SOL    HW151577   2.766   2.373   4.308 -0.0579  1.5855  0.2780
16719SOL    HW251578   2.650   2.382   4.211 -0.3922  1.8234  0.7013
16720SOL     OW51579   7.978   3.203   1.522  0.0521 -0.0391  0.1112
16720SOL    HW151580   8.037   3.244   1.585  0.9858 -1.5010  0.2375
16720SOL    HW251581   7.892   3.210   1.563  0.3504  0.7880  0.6270
16721SOL     OW51582   1.736   1.112   7.768  0.0530  0.4793 -0.1954
16721SOL    HW151583   1.707   1.085   7.855 -0.8932  0.5169 -0.4962
16721SOL    HW251584   1.672   1.075   7.708 -0.5420  2.2457 -0.7166
16722SOL     OW51585   0.461   4.103   4.357 -0.3320  0.0876  0.1449
16722SOL    HW151586   0.403   4.027   4.353 -0.5059  0.2714 -1.6172
16722SOL    HW251587   0.483   4.120   4.266  1.8017  0.5635  0.7044
16723SOL     OW51588   3.453   2.497   3.275 -0.3096  0.1361 -0.1553
16723SOL    HW151589   3.381   2.439   3.250  0.3047 -1.1908  1.0081
16723SOL    HW251590   3.530   2.460   3.232  0.6130 -1.7074  2.8613
16724SOL     OW51591   2.380   5.651   3.958 -0.1207  0.1959  0.1033
16724SOL    HW151592   2.294   5.616   3.983 -0.0400  0.0115  0.1201
16724SOL    HW251593   2.439   5.621   4.027  0.1644 -0.5744 -0.4645
16725SOL     OW51594   7.832   7.111   7.087 -0.5835  0.6637 -0.1829
16725SOL    HW151595   7.795   7.056   7.018  0.4467 -0.0009 -0.2250
16725SOL    HW251596   7.907   7.061   7.120 -0.2674  1.5714  0.5106
16726SOL     OW51597   1.218   6.682   4.504 -0.5920  0.1633 -0.0625
16726SOL    HW151598   1.270   6.688   4.424 -1.8780 -0.4765 -0.9892
16726SOL    HW251599   1.143   6.738   4.488 -0.3451  0.8809  1.1561
16727SOL     OW51600   1.915   6.449   6.965 -0.4574 -0.9318 -0.1947
16727SOL    HW151601   1.850   6.516   6.946 -1.0009 -1.6784 -1.0220
16727SOL    HW251602   1.939   6.464   7.057  0.5122  1.2900 -0.7518
16728SOL     OW51603   4.787   6.403   3.809  0.2863  0.0269  0.1242
16728SOL    HW151604   4.855   6.367   3.752 -0.2803  0.4354 -0.8437
16728SOL    HW251605   4.794   6.498   3.799 -0.6149  0.0685 -0.2388
16729SOL     OW51606   1.424   0.655   7.764  0.0161  0.4067 -0.1283
16729SOL    HW151607   1.344   0.702   7.740  0.1240  0.8717  0.4113
16729SOL    HW251608   1.432   0.587   7.697 -1.4512 -0.3662  0.4413
16730SOL     OW51609   0.597   7.846   5.287 -0.0361 -0.5338  0.1257
16730SOL    HW151610   0.608   7.915   5.222 -2.1715  0.1460  0.3960
16730SOL    HW251611   0.554   7.775   5.239  0.5823 -0.9936  0.2463
16731SOL     OW51612   6.342   7.559   4.154 -0.1629  0.6137 -0.2287
16731SOL    HW151613   6.310   7.549   4.244 -0.0387  1.1093 -0.1225
16731SOL    HW251614   6.378   7.474   4.131  0.0633  0.5624  0.2969
16732SOL     OW51615   7.943   3.826   1.289  0.1676  0.0776 -0.1241
16732SOL    HW151616   8.027   3.850   1.250 -0.1668  1.3689 -0.1126
16732SOL    HW251617   7.882   3.895   1.259 -0.8283 -0.6869  0.0741
16733SOL     OW51618   1.120   0.031   7.410 -0.2308 -0.2389 -0.0895
16733SOL    HW151619   1.077  -0.054   7.399  0.7438 -0.9065  1.0017
16733SOL    HW251620   1.179   0.018   7.484  1.5855  0.7256 -1.2987
16734SOL     OW51621   6.892   2.530   3.728  0.0495  0.3285  0.0088
16734SOL    HW151622   6.845   2.480   3.661 -0.2147  0.6626 -0.0582
16734SOL    HW251623   6.982   2.533   3.697 -0.1061  0.6349 -0.4293
16735SOL     OW51624   7.324   1.805   4.722  0.1480 -0.0275 -0.1345
16735SOL    HW151625   7.346   1.740   4.655  0.2400  0.0861 -0.2161
16735SOL    HW251626   7.345   1.763   4.805 -0.3274 -0.3117 -0.1550
16736SOL     OW51627   3.201   6.957   4.014 -0.6541  0.1509  0.2759
16736SOL    HW151628   3.127   7.016   3.996 -1.5503 -0.6309  1.2037
16736SOL    HW251629   3.180   6.877   3.966 -0.2626  0.0260  0.3146
16737SOL     OW51630   3.924   6.392   7.480  0.4368 -0.2391  0.1144
16737SOL    HW151631   3.951   6.356   7.564  1.5109 -1.8372 -0.8550
16737SOL    HW251632   3.869   6.324   7.441  0.1675  0.3634 -0.5868
16738SOL     OW51633   5.909   0.980   5.056 -0.5236  0.4611 -0.8288
16738SOL    HW151634   5.854   1.028   4.994 -1.2798  1.3880  0.4947
16738SOL    HW251635   5.985   1.037   5.070  0.0273 -0.1009 -1.4664
16739SOL     OW51636   1.977   3.100   0.541  0.2451  0.3224  0.0704
16739SOL    HW151637   1.927   3.182   0.544  0.0712  0.2085  0.4098
16739SOL    HW251638   1.967   3.063   0.629  2.9894  1.4964  0.9709
16740SOL     OW51639   2.946   1.268   7.330 -0.2590  0.2580 -0.1596
16740SOL    HW151640   3.029   1.270   7.378 -0.2259  1.4225 -0.2396
16740SOL    HW251641   2.961   1.206   7.259  0.0960 -0.5588  0.6017
16741SOL     OW51642   4.559   1.618   0.036  0.1841  0.6718 -0.1328
16741SOL    HW151643   4.508   1.581  -0.035 -0.0530  3.2223 -1.4249
16741SOL    HW251644   4.645   1.636  -0.003 -0.3808  3.3997 -0.3081
16742SOL     OW51645   0.244   1.722   1.989 -0.5763 -0.1982  0.6806
16742SOL    HW151646   0.260   1.807   2.029 -0.9356 -0.2325  0.9004
16742SOL    HW251647   0.149   1.712   1.991 -0.4567 -1.3050  2.1127
16743SOL     OW51648   3.855   5.154   2.706 -0.4584  0.0771  0.4744
16743SOL    HW151649   3.830   5.178   2.617 -0.7616 -0.2328  0.4747
16743SOL    HW251650   3.844   5.235   2.757 -1.0721  0.0495  0.3914
16744SOL     OW51651   4.224   6.131   2.221  0.2525  0.1558 -0.1167
16744SOL    HW151652   4.167   6.104   2.294 -0.1318  0.8794 -0.1334
16744SOL    HW251653   4.290   6.186   2.263  0.9261 -0.6508 -0.1053
16745SOL     OW51654   1.691   0.633   4.835 -0.0595 -0.2239  0.2514
16745SOL    HW151655   1.686   0.728   4.835  0.0677 -0.2003  1.4092
16745SOL    HW251656   1.757   0.611   4.769  0.0681  0.4924  0.1424
16746SOL     OW51657   6.626   2.822   1.313 -0.2491 -0.0620  0.1561
16746SOL    HW151658   6.582   2.836   1.229  0.8197 -0.1079 -0.4267
16746SOL    HW251659   6.666   2.906   1.334  0.6253 -0.4111 -0.0673
16747SOL     OW51660   4.617   7.824   0.224 -0.0164  0.2978  0.1174
16747SOL    HW151661   4.652   7.908   0.254  1.1808 -0.2925  0.4201
16747SOL    HW251662   4.526   7.826   0.252 -0.2450  1.8324 -0.5945
16748SOL     OW51663   2.745   3.866   2.745  0.0571 -0.0128 -0.3429
16748SOL    HW151664   2.685   3.939   2.724  0.2634 -0.8890 -5.2376
16748SOL    HW251665   2.801   3.900   2.815 -3.4290  2.3315  1.6117
16749SOL     OW51666   5.435   6.654   6.257 -0.2592 -0.3275  0.1050
16749SOL    HW151667   5.410   6.638   6.166 -1.4611 -3.8397  0.9134
16749SOL    HW251668   5.362   6.705   6.294  0.1402  0.9333 -0.7829
16750SOL     OW51669   0.859   3.106   1.614 -0.0533 -0.2104  0.1551
16750SOL    HW151670   0.825   3.017   1.610 -0.3210 -0.2595  2.3739
16750SOL    HW251671   0.877   3.129   1.522 -2.1419 -1.6717 -0.6913
16751SOL     OW51672   1.937   0.154   5.091 -0.1570  0.3457 -0.0838
16751SOL    HW151673   1.866   0.152   5.027 -0.3383 -1.7891  0.1269
16751SOL    HW251674   1.905   0.212   5.160 -1.4952 -0.1708 -0.2391
16752SOL     OW51675   0.018   1.658   5.530  0.2175 -0.8923 -0.4601
16752SOL    HW151676  -0.014   1.649   5.440 -1.8320  0.0269  0.1295
16752SOL    HW251677   0.055   1.746   5.534 -0.4392 -0.6190 -0.2119
16753SOL     OW51678   6.942   2.055   5.287  0.6790 -0.3587 -0.4022
16753SOL    HW151679   6.872   2.108   5.325  2.3901  0.8774  1.2440
16753SOL    HW251680   6.906   2.023   5.205 -2.5674 -1.5480  1.2868
16754SOL     OW51681   4.734   7.051   1.036  0.7463  0.4120  0.1509
16754SOL    HW151682   4.754   7.052   1.129  2.2992 -0.0974 -0.1430
16754SOL    HW251683   4.774   6.970   1.004 -0.8359 -0.0408 -0.7449
16755SOL     OW51684   6.027   5.789   1.193  0.0223  0.4006  0.3824
16755SOL    HW151685   6.057   5.772   1.103 -0.9679  1.4563 -0.1838
16755SOL    HW251686   6.085   5.859   1.225  0.5539 -0.1689  0.6770
16756SOL     OW51687   5.085   1.576   6.448 -0.2033  0.5589  0.7644
16756SOL    HW151688   4.999   1.579   6.490 -1.0829 -0.9385 -0.7839
16756SOL    HW251689   5.096   1.664   6.412 -1.1247  0.7572  0.9263
16757SOL     OW51690   2.209   6.248   4.024 -0.0008  0.5439 -0.3056
16757SOL    HW151691   2.263   6.316   3.983  0.5504  0.1968 -0.1592
16757SOL    HW251692   2.268   6.174   4.037 -0.4420  0.2550  0.1111
16758SOL     OW51693   6.150   6.285   5.666 -0.1308 -0.5118  0.1253
16758SOL    HW151694   6.055   6.293   5.678 -0.1478 -1.6852  0.8689
16758SOL    HW251695   6.166   6.191   5.662  1.0323 -0.3281  0.1595
16759SOL     OW51696   4.733   5.044   6.817  0.2826  0.3163 -0.1522
16759SOL    HW151697   4.787   5.084   6.885  1.2724  1.6624 -1.6501
16759SOL    HW251698   4.743   4.950   6.831  0.9076  0.5571  1.2065
16760SOL     OW51699   0.611   5.313   2.044 -0.1095  0.3479  0.3226
16760SOL    HW151700   0.600   5.408   2.044 -0.7642  0.4297 -3.4286
16760SOL    HW251701   0.522   5.278   2.046  0.1061 -0.1657  1.0665
16761SOL     OW51702   5.689   2.474   0.508 -0.4881 -0.1113  0.4078
16761SOL    HW151703   5.731   2.427   0.580  0.2567 -0.6828 -0.3794
16761SOL    HW251704   5.611   2.514   0.547  0.3547  0.3060  1.7157
16762SOL     OW51705   6.322   5.433   0.810  0.1858  0.5165  0.6413
16762SOL    HW151706   6.311   5.339   0.814 -1.4522  0.7170  1.4792
16762SOL    HW251707   6.339   5.459   0.900 -1.8847  1.2629  0.8703
16763SOL     OW51708   5.419   6.395   1.326  0.1996  0.0249  0.4992
16763SOL    HW151709   5.352   6.454   1.292  0.5239  0.0014 -0.2052
16763SOL    HW251710   5.495   6.408   1.268  0.1807 -1.2884  0.1346
16764SOL     OW51711   7.308   4.884   3.198 -0.1644 -0.3920 -0.5860
16764SOL    HW151712   7.258   4.941   3.257  0.2138  0.3370 -0.9494
16764SOL    HW251713   7.383   4.855   3.250 -0.6859 -1.0743 -0.2020
16765SOL     OW51714   1.555   6.745   3.287  0.2479  0.6668 -0.2808
16765SOL    HW151715   1.531   6.652   3.282  2.3149  0.0064  0.9336
16765SOL    HW251716   1.558   6.763   3.381  1.2812  1.5673 -0.4806
16766SOL     OW51717   0.407   2.392   7.401 -0.2723 -0.2984  0.4357
16766SOL    HW151718   0.490   2.439   7.410  0.3163 -0.7882 -1.8690
16766SOL    HW251719   0.355   2.421   7.476  1.3881  1.2197  1.0706
16767SOL     OW51720   4.568   3.207   6.574  0.1045 -0.6515  0.8170
16767SOL    HW151721   4.551   3.217   6.481 -1.1164  2.4258  1.2753
16767SOL    HW251722   4.632   3.136   6.579  1.7479  0.4260 -2.4805
16768SOL     OW51723   2.428   1.630   7.308  0.4360 -0.0627 -0.3230
16768SOL    HW151724   2.358   1.695   7.311  0.4833 -0.0289  0.5969
16768SOL    HW251725   2.447   1.612   7.400  1.3548 -0.3710 -0.5602
16769SOL     OW51726   4.073   4.354   1.155  0.1788  0.6629 -0.3141
16769SOL    HW151727   4.137   4.362   1.226  0.0811 -0.8435 -0.0076
16769SOL    HW251728   3.988   4.351   1.200  0.0749  0.2771 -0.5339
16770SOL     OW51729   6.218   3.191   7.024 -0.1581  0.0037  0.1436
16770SOL    HW151730   6.203   3.255   6.953 -0.1728 -0.0822  0.0690
16770SOL    HW251731   6.131   3.157   7.043 -0.2340  0.4309  0.5880
16771SOL     OW51732   2.728   0.142   7.429 -0.2306  0.1262  0.0911
16771SOL    HW151733   2.690   0.126   7.516 -0.5840 -0.1317 -0.1052
16771SOL    HW251734   2.745   0.236   7.428 -2.0856  0.5117 -0.2696
16772SOL     OW51735   7.898   3.131   0.129  0.1688 -0.7019  0.7458
16772SOL    HW151736   7.823   3.074   0.146 -1.8207  2.1527  2.4934
16772SOL    HW251737   7.949   3.128   0.210  0.2779 -0.3217  0.6912
16773SOL     OW51738   6.553   3.565   5.171 -0.6452  0.5219 -0.1061
16773SOL    HW151739   6.611   3.595   5.241 -0.6899  0.5230 -0.0694
16773SOL    HW251740   6.518   3.481   5.202  0.2713 -0.0763 -0.6551
16774SOL     OW51741   5.025   7.916   4.435  0.0312  0.9521  0.3463
16774SOL    HW151742   5.104   7.913   4.489 -0.5728  2.2379  1.3369
16774SOL    HW251743   5.026   7.833   4.387  1.9257  0.8939  0.3989
16775SOL     OW51744   0.976   2.654   2.266  0.1722 -0.3807 -0.2339
16775SOL    HW151745   1.063   2.674   2.232  0.4293 -2.5137 -0.9804
16775SOL    HW251746   0.947   2.578   2.215 -1.7014 -0.3563  0.7057
16776SOL     OW51747   1.772   1.048   2.709  0.2723 -0.7206 -0.4087
16776SOL    HW151748   1.697   1.027   2.765  0.8430  0.8183  1.0488
16776SOL    HW251749   1.756   1.002   2.628 -1.2324 -2.0785  0.6015
16777SOL     OW51750   6.484   3.925   3.171  0.8102 -0.0156 -0.2249
16777SOL    HW151751   6.443   3.981   3.237  1.9422  2.1417 -1.2567
16777SOL    HW251752   6.556   3.882   3.217 -1.1179 -2.1988  1.0461
16778SOL     OW51753   6.909   6.585   5.607  0.1587  0.2350  0.3015
16778SOL    HW151754   6.868   6.631   5.680  0.9767  1.9242 -0.2648
16778SOL    HW251755   6.875   6.630   5.529  2.8718  1.5920 -0.1950
16779SOL     OW51756   5.445   1.800   5.915 -0.2004 -0.5209  0.5249
16779SOL    HW151757   5.493   1.877   5.947  0.5594 -1.2262  1.1304
16779SOL    HW251758   5.415   1.825   5.828 -1.0243  0.9151  1.1699
16780SOL     OW51759   6.018   1.428   3.004  0.0816 -0.4682  0.1404
16780SOL    HW151760   6.031   1.336   2.981 -0.0170 -0.9538  1.8497
16780SOL    HW251761   5.958   1.426   3.079 -0.8590  1.0709 -0.5148
16781SOL     OW51762   0.538   0.814   5.572 -0.2350  0.3089  0.3468
16781SOL    HW151763   0.530   0.804   5.477  1.5454  0.6587  0.1232
16781SOL    HW251764   0.448   0.817   5.604 -0.8898 -1.5365 -1.1418
16782SOL     OW51765   0.017   7.676   4.773 -0.0244  0.0187 -0.0203
16782SOL    HW151766   0.047   7.718   4.692 -1.2233  0.0888 -0.4495
16782SOL    HW251767   0.065   7.594   4.777  1.1552  0.6815 -0.0162
16783SOL     OW51768   7.033   0.026   7.698  0.1441 -0.1690 -0.0638
16783SOL    HW151769   7.034  -0.068   7.681 -2.1116 -0.4194  0.8183
16783SOL    HW251770   6.994   0.063   7.619  0.3107 -0.0573 -0.0935
16784SOL     OW51771   3.543   6.420   1.197  0.1234 -0.1189 -0.5183
16784SOL    HW151772   3.576   6.459   1.278  0.7653 -0.5476 -0.5646
16784SOL    HW251773   3.614   6.364   1.167 -0.7654 -1.3113 -0.4661
16785SOL     OW51774   5.322   7.588   0.464  0.9301  0.2803 -0.4409
16785SOL    HW151775   5.251   7.560   0.406  0.4670  0.1110  0.2006
16785SOL    HW251776   5.401   7.551   0.425  0.4855 -0.7948 -0.3512
16786SOL     OW51777   7.254   6.595   6.876  0.1945 -0.3347  0.2333
16786SOL    HW151778   7.247   6.503   6.850 -1.2958  0.3314 -2.0017
16786SOL    HW251779   7.342   6.621   6.848  0.2444 -0.8120 -0.0669
16787SOL     OW51780   1.748   2.250   1.252 -0.1523  0.1822  0.0558
16787SOL    HW151781   1.750   2.346   1.248  2.6549  0.1650 -2.9020
16787SOL    HW251782   1.734   2.223   1.161 -2.4399 -2.3225  1.0297
16788SOL     OW51783   2.944   1.088   4.744  0.2094 -0.4993 -0.4560
16788SOL    HW151784   3.028   1.081   4.790 -0.3423  1.1670  0.9285
16788SOL    HW251785   2.942   1.179   4.713 -0.9518 -0.5965 -0.7107
16789SOL     OW51786   5.126   0.609   1.113 -0.5308 -0.1211  0.2010
16789SOL    HW151787   5.088   0.586   1.197 -1.2263 -0.7909 -0.2882
16789SOL    HW251788   5.054   0.603   1.050 -0.2095  1.1366 -0.3386
16790SOL     OW51789   2.337   0.784   2.820  0.4627  0.4916 -0.3162
16790SOL    HW151790   2.320   0.748   2.907  0.4590  0.6732 -0.2416
16790SOL    HW251791   2.384   0.714   2.774 -0.2021  0.1039 -0.4205
16791SOL     OW51792   5.122   3.532   1.472 -0.0585  0.2297  0.0612
16791SOL    HW151793   5.064   3.608   1.471  1.8795  1.8023  0.6203
16791SOL    HW251794   5.122   3.502   1.563 -0.1491  0.1127  0.0226
16792SOL     OW51795   7.105   5.711   2.508  0.2752 -0.0121 -0.1674
16792SOL    HW151796   7.098   5.804   2.530  0.2169 -0.1976  0.6130
16792SOL    HW251797   7.126   5.711   2.415  1.2135  0.8083  0.0259
16793SOL     OW51798   6.739   1.131   0.406 -0.4569 -0.3839 -0.5691
16793SOL    HW151799   6.725   1.036   0.402 -0.3882 -0.3937 -0.5707
16793SOL    HW251800   6.652   1.168   0.392 -0.5969 -0.4583  0.1068
16794SOL     OW51801   3.704   2.872   2.931  0.2991  0.4680  0.2430
16794SOL    HW151802   3.619   2.914   2.923  0.3284  0.2967 -1.4109
16794SOL    HW251803   3.685   2.784   2.962  0.0045  0.8399  1.1477
16795SOL     OW51804   6.256   2.481   1.086  0.5602  0.2973 -0.3746
16795SOL    HW151805   6.223   2.406   1.037 -1.1703  1.1362 -0.5632
16795SOL    HW251806   6.188   2.548   1.078  1.1912  1.2319  1.3612
16796SOL     OW51807   4.934   7.410   1.583  0.2687 -0.7278  0.4994
16796SOL    HW151808   5.000   7.341   1.593 -0.5576 -1.5537  0.3364
16796SOL    HW251809   4.903   7.426   1.672  1.7936  0.8121  0.8175
16797SOL     OW51810   2.639   5.085   3.651 -0.5219  0.1196 -0.3581
16797SOL    HW151811   2.590   5.137   3.588  0.5631  0.6988 -0.7390
16797SOL    HW251812   2.596   5.101   3.735 -1.5707 -0.1490 -0.8296
16798NA      NA51813   1.378   2.952   5.481  0.0004  0.2340  0.1558
16799NA      NA51814   6.992   3.682   1.189  0.2653  0.0995 -0.0027
16800NA      NA51815   3.691   1.669   3.604  1.0117 -0.6629 -0.1468
16801NA      NA51816   6.039   7.359   5.198  0.3460 -0.1866  0.3149
16802NA      NA51817   5.766   6.007   7.208 -0.1400 -0.0964  0.2535
16803NA      NA51818   7.138   0.078   4.119 -0.2531  0.3093 -0.1959
16804NA      NA51819   1.785   1.166   3.834  0.6268 -0.3478 -0.2922
16805NA      NA51820   7.402   7.304   4.069 -0.2704  0.3659 -0.4180
16806NA      NA51821   4.055   4.363   4.438 -0.0586  0.1851 -0.3491
16807NA      NA51822   5.607   1.226   2.336 -0.0061 -0.2023 -0.1240
16808NA      NA51823   6.905   2.185   4.542  0.2878  0.6222  0.0257
16809NA      NA51824   3.519   3.049   1.017 -0.7614  0.1033 -0.0772
16810NA      NA51825   0.558   1.711   1.416  0.1050 -0.2799 -0.3803
16811NA      NA51826   0.621   4.215   2.021  0.4674  0.3480 -0.1639
16812NA      NA51827   6.396   1.753   0.126  0.1508 -0.0830  0.1307
16813NA      NA51828   0.809   4.593   3.321  0.3747  0.1173 -0.1055
16814NA      NA51829   2.482   0.614   6.271 -0.5686  0.2561  0.3198
16815NA      NA51830   4.243   4.328   7.507  0.3663 -0.6879 -0.3611
16816NA      NA51831   2.343   5.163   7.388 -0.3408 -0.2494  0.0050
16817NA      NA51832   7.981   2.621   2.043 -0.6847  0.0574 -0.1277
16818NA      NA51833   1.267   1.861   6.873  0.4574 -0.0395 -0.1523
16819NA      NA51834   7.806   1.973   6.735 -0.0798  0.3353 -0.0817
16820NA      NA51835   3.948   2.101   3.199 -0.2753 -0.2584 -0.3664
16821NA      NA51836   0.450   6.571   1.184  0.2271  0.2320  0.0533
16822NA      NA51837   5.424   0.851   6.187  0.0345  0.3690 -0.5490
16823NA      NA51838   7.715   2.694   6.943  0.3146  0.1771  0.3948
16824NA      NA51839   5.501   1.480   5.616  0.1839 -0.3769 -0.2335
16825NA      NA51840   4.816   3.799   3.305  0.0439  0.1268 -0.1108
16826NA      NA51841   4.887   2.106   6.037  0.2539  0.1624 -0.1849
16827NA      NA51842   7.976   3.040   1.386  0.1789  0.0771 -0.1439
16828NA      NA51843   1.864   5.071   1.112 -0.4600  0.1489 -0.0222
16829NA      NA51844   4.456   0.977   1.765  0.0961 -0.0067 -0.0610
16830NA      NA51845   1.506   7.347   6.139  0.0820 -0.1803  0.0203
16831NA      NA51846   4.669   5.697   3.018 -0.0857 -0.0713 -0.1120
16832NA      NA51847   0.186   5.328   4.768  0.1067 -0.1868 -0.2220
16833NA      NA51848   6.159   3.567   3.104  0.1346  0.1351  0.0612
16834NA      NA51849   0.675   5.120   0.974 -0.0891  0.5987  0.2697
16835NA      NA51850   0.886   1.072   7.962 -0.0639  0.0850 -0.1677
16836NA      NA51851   1.150   0.975   1.065 -0.9687 -0.2653  0.5116
16837NA      NA51852   1.931   2.940   4.190 -0.1156 -0.2633  0.5175
16838NA      NA51853   3.122   7.421   6.014 -0.0554 -0.1067  0.0389
16839NA      NA51854   5.960   2.292   0.185  0.2500 -0.2820  0.2669
16840NA      NA51855   6.837   5.977   1.554 -0.2207  0.4589 -0.1022
16841NA      NA51856   5.873   3.219   4.503 -0.1309 -0.2993  0.1311
16842NA      NA51857   6.338   2.603   1.837  0.1982 -0.2605  0.1395
16843NA      NA51858   3.261   5.859   5.070  0.0551  0.0735 -0.0077
16844NA      NA51859   8.041   0.621   7.120  0.0969 -0.1289  0.0249
16845NA      NA51860   8.020   4.875   3.388  0.3596  0.1883  0.1268
16846CL      CL51861   3.260   0.784   5.029 -0.0397  0.1256  0.0544
16847CL      CL51862   8.049   0.066   4.827  0.2608  0.3436 -0.1753
16848CL      CL51863   7.749   5.753   6.550  0.5913 -0.0070 -0.2881
16849CL      CL51864   0.848   0.834   0.678  0.1945 -0.0929  0.0233
16850CL      CL51865   0.471   1.913   1.277 -0.3059  0.2315  0.0871
16851CL      CL51866   4.502   7.149   4.166 -0.1701 -0.3357 -0.4292
16852CL      CL51867   3.240   7.727   6.297 -0.3542  0.4035  0.2609
16853CL      CL51868   0.024   6.788   3.338  0.2970 -0.2824  0.1252
16854CL      CL51869   0.262   6.169   3.210 -0.0207  0.3450 -0.0387
16855CL      CL51870   4.575   5.796   2.079  0.1744 -0.1972  0.0950
16856CL      CL51871   1.105   7.427   6.011 -0.2169  0.3544 -0.0761
16857CL      CL51872   0.790   2.794   7.939  0.1220  0.3564 -0.0614
16858CL      CL51873   3.449   2.023   5.811 -0.2503 -0.1959  0.1908
16859CL      CL51874   3.171   2.284   0.655  0.0318 -0.0407 -0.5570
16860CL      CL51875   4.353   0.422   7.790  0.1997  0.4180 -0.1000
16861CL      CL51876   0.557   3.192   6.823 -0.2296 -0.4055  0.3799
16862CL      CL51877   6.122   3.722   7.774 -0.3797 -0.0554 -0.0383
16863CL      CL51878   7.536   4.903   3.410  0.1110  0.0758  0.2626
16864CL      CL51879   0.805   6.371   2.261 -0.2781  0.3025 -0.4203
16865CL      CL51880   2.479   5.413   0.917  0.0419  0.5637 -0.1136
16866CL      CL51881   0.750   7.746   7.970 -0.1025  0.1850 -0.0631
16867CL      CL51882   1.608   0.701   6.196 -0.0289 -0.4251 -0.0173
16868CL      CL51883   1.494   4.896   4.700  0.3236  0.1538  0.1832
16869CL      CL51884   6.376   7.264   4.110 -0.1484 -0.1409 -0.4850
16870CL      CL51885   5.612   0.903   6.049  0.5128 -0.2896 -0.0591
16871CL      CL51886   5.067   2.043   5.895  0.4531  0.0795  0.0521
16872CL      CL51887   6.137   3.520   4.096  0.0362  0.2140 -0.1656
16873CL      CL51888   2.895   2.935   6.886  0.3177  0.4590  0.1933
16874CL      CL51889   3.930   3.649   3.056 -0.1364 -0.1797  0.3365
16875CL      CL51890   3.327   1.062   4.576  0.3157  0.2529 -0.5812
16876CL      CL51891   7.820   6.168   4.295  0.0445  0.0567 -0.0057
16877CL      CL51892   8.048   6.681   1.366 -0.2052 -0.0056 -0.0923
16878CL      CL51893   0.433   2.794   0.450  0.1837 -0.2175 -0.2775
16879CL      CL51894   2.749   2.613   3.303 -0.4625 -0.1220 -0.1749
16880CL      CL51895   0.128   1.306   7.046 -0.0594  0.0893  0.3242
16881CL      CL51896   5.565   5.360   7.514  0.2892  0.1393  0.8996
16882CL      CL51897   6.752   3.099   1.352  0.0504  0.0237 -0.1291
16883CL      CL51898   5.166   2.945   6.840 -0.4107 -0.1140 -0.2172
16884CL      CL51899   3.793   8.014   3.541  0.0183 -0.1139  0.0678
16885CL      CL51900   4.749   2.433   3.216 -0.3247  0.2509 -0.1130
16886CL      CL51901   6.808   7.067   7.009 -0.2934 -0.7185 -0.2115
16887CL      CL51902   1.461   1.038   4.177 -0.3785 -0.2558 -0.2084
16888CL      CL51903   1.074   5.689   0.953  0.0039  0.4105  0.7117
16889CL      CL51904   8.044   3.197   4.304  0.2260 -0.5411 -0.2461
16890CL      CL51905   3.246   0.680   2.514  0.0174  0.1316  0.0412
16891CL      CL51906   4.997   2.109   6.284  0.1736  0.0746 -0.3451
16892CL      CL51907   7.827   3.879   4.287 -0.3626  0.3811  0.0911
16893CL      CL51908   2.015   6.365   1.601  0.3521  0.3980  0.0235
   8.06096   8.06096   8.06096
