;
;   File pamam_g2.5np_dglucose.itp  was generated
;   By user: sairam (1000)
;   On host: sairam
;   At date: Thu. January  4 15:22:22 2025
;
;   This is a standalone topology file
;
;   Created by:
;   ParmEd:       amb2gro_top_gro.py, VERSION 3.4.1
;   Executable:   amb2gro_top_gro.py
;   Library dir:  /usr/local/gromacs/share/gromacs/top
;   Command line:
;     ./amb2gro_top_gro.py -p pamam_g2.5np_dglucose.prmtop -c pamam_g2.5np_dglucose.inpcrd -t pamam_g2.5np_dglucose.itp -g pamam_g2.5np_dglucose.gro -b pamam_g2.5np_dglucose.pdb
;

;[ defaults ]
;; nbfunc        comb-rule       gen-pairs       fudgeLJ fudgeQQ
;1               2               yes             0.5          0.83333333  
;
;[ atomtypes ]
;; name    at.num    mass    charge ptype  sigma      epsilon
;c3             6  12.010000  0.00000000  A     0.33996695      0.4577296
;h1             1   1.008000  0.00000000  A      0.2471353      0.0656888
;n3             7  14.010000  0.00000000  A     0.32499985        0.71128
;hc             1   1.008000  0.00000000  A     0.26495328      0.0656888
;c              6  12.010000  0.00000000  A     0.33996695       0.359824
;o              8  16.000000  0.00000000  A     0.29599219        0.87864
;n              7  14.010000  0.00000000  A     0.32499985        0.71128
;hn             1   1.008000  0.00000000  A     0.10690785      0.0656888
;h2             1   1.008000  0.00000000  A     0.22931733      0.0656888
;oh             8  16.000000  0.00000000  A     0.30664734      0.8803136
;ho             1   1.008000  0.00000000  A              0              0
;os             8  16.000000  0.00000000  A     0.30000123        0.71128


[ moleculetype ]
; Name            nrexcl
pamam_g2.5np_dglucose          3

[ atoms ]
;   nr       type  resnr residue  atom   cgnr    charge       mass  typeB    chargeB      massB
; residue    1 aaa rtp aaa q -0.0
    1         c3      1    aaa     C1      1 0.02890000  12.010000   ; qtot 0.028900
    2         h1      1    aaa     H1      2 0.08460000   1.008000   ; qtot 0.113500
    3         h1      1    aaa     H2      3 0.08460000   1.008000   ; qtot 0.198100
    4         c3      1    aaa     C2      4 0.02890000  12.010000   ; qtot 0.227000
    5         h1      1    aaa     H3      5 0.08460000   1.008000   ; qtot 0.311600
    6         h1      1    aaa     H4      6 0.08460000   1.008000   ; qtot 0.396200
    7         n3      1    aaa     N1      7 -0.65770000  14.010000   ; qtot -0.261500
    8         n3      1    aaa     N2      8 -0.65770000  14.010000   ; qtot -0.919200
    9         c3      1    aaa     C3      9 0.36940000  12.010000   ; qtot -0.549800
   10         h1      1    aaa     H5     10 0.00650000   1.008000   ; qtot -0.543300
   11         h1      1    aaa     H6     11 0.00650000   1.008000   ; qtot -0.536800
   12         c3      1    aaa     C4     12 0.36940000  12.010000   ; qtot -0.167400
   13         h1      1    aaa     H7     13 0.00650000   1.008000   ; qtot -0.160900
   14         h1      1    aaa     H8     14 0.00650000   1.008000   ; qtot -0.154400
   15         c3      1    aaa     C5     15 0.36940000  12.010000   ; qtot 0.215000
   16         h1      1    aaa     H9     16 0.00650000   1.008000   ; qtot 0.221500
   17         h1      1    aaa    H10     17 0.00650000   1.008000   ; qtot 0.228000
   18         c3      1    aaa     C6     18 0.36940000  12.010000   ; qtot 0.597400
   19         h1      1    aaa    H11     19 0.00650000   1.008000   ; qtot 0.603900
   20         h1      1    aaa    H12     20 0.00650000   1.008000   ; qtot 0.610400
   21         c3      1    aaa     C7     21 -0.54350000  12.010000   ; qtot 0.066900
   22         hc      1    aaa    H13     22 0.15890000   1.008000   ; qtot 0.225800
   23         hc      1    aaa    H14     23 0.15890000   1.008000   ; qtot 0.384700
   24         c3      1    aaa     C8     24 -0.54350000  12.010000   ; qtot -0.158800
   25         hc      1    aaa    H15     25 0.15890000   1.008000   ; qtot 0.000100
   26         hc      1    aaa    H16     26 0.15890000   1.008000   ; qtot 0.159000
   27         c3      1    aaa     C9     27 -0.54350000  12.010000   ; qtot -0.384500
   28         hc      1    aaa    H17     28 0.15890000   1.008000   ; qtot -0.225600
   29         hc      1    aaa    H18     29 0.15890000   1.008000   ; qtot -0.066700
   30         c3      1    aaa    C10     30 -0.54350000  12.010000   ; qtot -0.610200
   31         hc      1    aaa    H19     31 0.15890000   1.008000   ; qtot -0.451300
   32         hc      1    aaa    H20     32 0.15890000   1.008000   ; qtot -0.292400
   33          c      1    aaa    C11     33 0.67800000  12.010000   ; qtot 0.385600
   34          c      1    aaa    C12     34 0.67800000  12.010000   ; qtot 1.063600
   35          c      1    aaa    C13     35 0.67800000  12.010000   ; qtot 1.741600
   36          c      1    aaa    C14     36 0.67800000  12.010000   ; qtot 2.419600
   37          o      1    aaa     O1     37 -0.60490000  16.000000   ; qtot 1.814700
   38          o      1    aaa     O2     38 -0.60490000  16.000000   ; qtot 1.209800
   39          o      1    aaa     O3     39 -0.60490000  16.000000   ; qtot 0.604900
   40          o      1    aaa     O4     40 -0.60490000  16.000000   ; qtot -0.000000
; residue    2 bbb rtp bbb q -0.0
   41         c3      2    bbb     C1     41 0.44180000  12.010000   ; qtot 0.441800
   42         h1      2    bbb     H1     42 -0.03530000   1.008000   ; qtot 0.406500
   43         h1      2    bbb     H2     43 -0.03530000   1.008000   ; qtot 0.371200
   44         c3      2    bbb     C2     44 -0.28250000  12.010000   ; qtot 0.088700
   45         h1      2    bbb     H3     45 0.15710000   1.008000   ; qtot 0.245800
   46         h1      2    bbb     H4     46 0.15710000   1.008000   ; qtot 0.402900
   47         n3      2    bbb     N1     47 -0.74090000  14.010000   ; qtot -0.338000
   48         c3      2    bbb     C3     48 0.51680000  12.010000   ; qtot 0.178800
   49         h1      2    bbb     H5     49 -0.05230000   1.008000   ; qtot 0.126500
   50         h1      2    bbb     H6     50 -0.05230000   1.008000   ; qtot 0.074200
   51         c3      2    bbb     C4     51 0.51680000  12.010000   ; qtot 0.591000
   52         h1      2    bbb     H7     52 -0.05230000   1.008000   ; qtot 0.538700
   53         h1      2    bbb     H8     53 -0.05230000   1.008000   ; qtot 0.486400
   54         c3      2    bbb     C5     54 -0.60390000  12.010000   ; qtot -0.117500
   55         hc      2    bbb     H9     55 0.16730000   1.008000   ; qtot 0.049800
   56         hc      2    bbb    H10     56 0.16730000   1.008000   ; qtot 0.217100
   57         c3      2    bbb     C6     57 -0.60390000  12.010000   ; qtot -0.386800
   58         hc      2    bbb    H11     58 0.16730000   1.008000   ; qtot -0.219500
   59         hc      2    bbb    H12     59 0.16730000   1.008000   ; qtot -0.052200
   60          c      2    bbb     C7     60 0.72110000  12.010000   ; qtot 0.668900
   61          c      2    bbb     C8     61 0.72110000  12.010000   ; qtot 1.390000
   62          o      2    bbb     O1     62 -0.61950000  16.000000   ; qtot 0.770500
   63          o      2    bbb     O2     63 -0.61950000  16.000000   ; qtot 0.151000
   64          n      2    bbb     N4     64 -0.46580000  14.010000   ; qtot -0.314800
   65         hn      2    bbb    H21     65 0.31480000   1.008000   ; qtot -0.000000
; residue    3 bbb rtp bbb q -0.0
   66         c3      3    bbb     C1     66 0.44180000  12.010000   ; qtot 0.441800
   67         h1      3    bbb     H1     67 -0.03530000   1.008000   ; qtot 0.406500
   68         h1      3    bbb     H2     68 -0.03530000   1.008000   ; qtot 0.371200
   69         c3      3    bbb     C2     69 -0.28250000  12.010000   ; qtot 0.088700
   70         h1      3    bbb     H3     70 0.15710000   1.008000   ; qtot 0.245800
   71         h1      3    bbb     H4     71 0.15710000   1.008000   ; qtot 0.402900
   72         n3      3    bbb     N1     72 -0.74090000  14.010000   ; qtot -0.338000
   73         c3      3    bbb     C3     73 0.51680000  12.010000   ; qtot 0.178800
   74         h1      3    bbb     H5     74 -0.05230000   1.008000   ; qtot 0.126500
   75         h1      3    bbb     H6     75 -0.05230000   1.008000   ; qtot 0.074200
   76         c3      3    bbb     C4     76 0.51680000  12.010000   ; qtot 0.591000
   77         h1      3    bbb     H7     77 -0.05230000   1.008000   ; qtot 0.538700
   78         h1      3    bbb     H8     78 -0.05230000   1.008000   ; qtot 0.486400
   79         c3      3    bbb     C5     79 -0.60390000  12.010000   ; qtot -0.117500
   80         hc      3    bbb     H9     80 0.16730000   1.008000   ; qtot 0.049800
   81         hc      3    bbb    H10     81 0.16730000   1.008000   ; qtot 0.217100
   82         c3      3    bbb     C6     82 -0.60390000  12.010000   ; qtot -0.386800
   83         hc      3    bbb    H11     83 0.16730000   1.008000   ; qtot -0.219500
   84         hc      3    bbb    H12     84 0.16730000   1.008000   ; qtot -0.052200
   85          c      3    bbb     C7     85 0.72110000  12.010000   ; qtot 0.668900
   86          c      3    bbb     C8     86 0.72110000  12.010000   ; qtot 1.390000
   87          o      3    bbb     O1     87 -0.61950000  16.000000   ; qtot 0.770500
   88          o      3    bbb     O2     88 -0.61950000  16.000000   ; qtot 0.151000
   89          n      3    bbb     N4     89 -0.46580000  14.010000   ; qtot -0.314800
   90         hn      3    bbb    H21     90 0.31480000   1.008000   ; qtot -0.000000
; residue    4 bbb rtp bbb q -0.0
   91         c3      4    bbb     C1     91 0.44180000  12.010000   ; qtot 0.441800
   92         h1      4    bbb     H1     92 -0.03530000   1.008000   ; qtot 0.406500
   93         h1      4    bbb     H2     93 -0.03530000   1.008000   ; qtot 0.371200
   94         c3      4    bbb     C2     94 -0.28250000  12.010000   ; qtot 0.088700
   95         h1      4    bbb     H3     95 0.15710000   1.008000   ; qtot 0.245800
   96         h1      4    bbb     H4     96 0.15710000   1.008000   ; qtot 0.402900
   97         n3      4    bbb     N1     97 -0.74090000  14.010000   ; qtot -0.338000
   98         c3      4    bbb     C3     98 0.51680000  12.010000   ; qtot 0.178800
   99         h1      4    bbb     H5     99 -0.05230000   1.008000   ; qtot 0.126500
  100         h1      4    bbb     H6    100 -0.05230000   1.008000   ; qtot 0.074200
  101         c3      4    bbb     C4    101 0.51680000  12.010000   ; qtot 0.591000
  102         h1      4    bbb     H7    102 -0.05230000   1.008000   ; qtot 0.538700
  103         h1      4    bbb     H8    103 -0.05230000   1.008000   ; qtot 0.486400
  104         c3      4    bbb     C5    104 -0.60390000  12.010000   ; qtot -0.117500
  105         hc      4    bbb     H9    105 0.16730000   1.008000   ; qtot 0.049800
  106         hc      4    bbb    H10    106 0.16730000   1.008000   ; qtot 0.217100
  107         c3      4    bbb     C6    107 -0.60390000  12.010000   ; qtot -0.386800
  108         hc      4    bbb    H11    108 0.16730000   1.008000   ; qtot -0.219500
  109         hc      4    bbb    H12    109 0.16730000   1.008000   ; qtot -0.052200
  110          c      4    bbb     C7    110 0.72110000  12.010000   ; qtot 0.668900
  111          c      4    bbb     C8    111 0.72110000  12.010000   ; qtot 1.390000
  112          o      4    bbb     O1    112 -0.61950000  16.000000   ; qtot 0.770500
  113          o      4    bbb     O2    113 -0.61950000  16.000000   ; qtot 0.151000
  114          n      4    bbb     N4    114 -0.46580000  14.010000   ; qtot -0.314800
  115         hn      4    bbb    H21    115 0.31480000   1.008000   ; qtot -0.000000
; residue    5 bbb rtp bbb q -0.0
  116         c3      5    bbb     C1    116 0.44180000  12.010000   ; qtot 0.441800
  117         h1      5    bbb     H1    117 -0.03530000   1.008000   ; qtot 0.406500
  118         h1      5    bbb     H2    118 -0.03530000   1.008000   ; qtot 0.371200
  119         c3      5    bbb     C2    119 -0.28250000  12.010000   ; qtot 0.088700
  120         h1      5    bbb     H3    120 0.15710000   1.008000   ; qtot 0.245800
  121         h1      5    bbb     H4    121 0.15710000   1.008000   ; qtot 0.402900
  122         n3      5    bbb     N1    122 -0.74090000  14.010000   ; qtot -0.338000
  123         c3      5    bbb     C3    123 0.51680000  12.010000   ; qtot 0.178800
  124         h1      5    bbb     H5    124 -0.05230000   1.008000   ; qtot 0.126500
  125         h1      5    bbb     H6    125 -0.05230000   1.008000   ; qtot 0.074200
  126         c3      5    bbb     C4    126 0.51680000  12.010000   ; qtot 0.591000
  127         h1      5    bbb     H7    127 -0.05230000   1.008000   ; qtot 0.538700
  128         h1      5    bbb     H8    128 -0.05230000   1.008000   ; qtot 0.486400
  129         c3      5    bbb     C5    129 -0.60390000  12.010000   ; qtot -0.117500
  130         hc      5    bbb     H9    130 0.16730000   1.008000   ; qtot 0.049800
  131         hc      5    bbb    H10    131 0.16730000   1.008000   ; qtot 0.217100
  132         c3      5    bbb     C6    132 -0.60390000  12.010000   ; qtot -0.386800
  133         hc      5    bbb    H11    133 0.16730000   1.008000   ; qtot -0.219500
  134         hc      5    bbb    H12    134 0.16730000   1.008000   ; qtot -0.052200
  135          c      5    bbb     C7    135 0.72110000  12.010000   ; qtot 0.668900
  136          c      5    bbb     C8    136 0.72110000  12.010000   ; qtot 1.390000
  137          o      5    bbb     O1    137 -0.61950000  16.000000   ; qtot 0.770500
  138          o      5    bbb     O2    138 -0.61950000  16.000000   ; qtot 0.151000
  139          n      5    bbb     N4    139 -0.46580000  14.010000   ; qtot -0.314800
  140         hn      5    bbb    H21    140 0.31480000   1.008000   ; qtot -0.000000
; residue    6 bbb rtp bbb q -0.0
  141         c3      6    bbb     C1    141 0.44180000  12.010000   ; qtot 0.441800
  142         h1      6    bbb     H1    142 -0.03530000   1.008000   ; qtot 0.406500
  143         h1      6    bbb     H2    143 -0.03530000   1.008000   ; qtot 0.371200
  144         c3      6    bbb     C2    144 -0.28250000  12.010000   ; qtot 0.088700
  145         h1      6    bbb     H3    145 0.15710000   1.008000   ; qtot 0.245800
  146         h1      6    bbb     H4    146 0.15710000   1.008000   ; qtot 0.402900
  147         n3      6    bbb     N1    147 -0.74090000  14.010000   ; qtot -0.338000
  148         c3      6    bbb     C3    148 0.51680000  12.010000   ; qtot 0.178800
  149         h1      6    bbb     H5    149 -0.05230000   1.008000   ; qtot 0.126500
  150         h1      6    bbb     H6    150 -0.05230000   1.008000   ; qtot 0.074200
  151         c3      6    bbb     C4    151 0.51680000  12.010000   ; qtot 0.591000
  152         h1      6    bbb     H7    152 -0.05230000   1.008000   ; qtot 0.538700
  153         h1      6    bbb     H8    153 -0.05230000   1.008000   ; qtot 0.486400
  154         c3      6    bbb     C5    154 -0.60390000  12.010000   ; qtot -0.117500
  155         hc      6    bbb     H9    155 0.16730000   1.008000   ; qtot 0.049800
  156         hc      6    bbb    H10    156 0.16730000   1.008000   ; qtot 0.217100
  157         c3      6    bbb     C6    157 -0.60390000  12.010000   ; qtot -0.386800
  158         hc      6    bbb    H11    158 0.16730000   1.008000   ; qtot -0.219500
  159         hc      6    bbb    H12    159 0.16730000   1.008000   ; qtot -0.052200
  160          c      6    bbb     C7    160 0.72110000  12.010000   ; qtot 0.668900
  161          c      6    bbb     C8    161 0.72110000  12.010000   ; qtot 1.390000
  162          o      6    bbb     O1    162 -0.61950000  16.000000   ; qtot 0.770500
  163          o      6    bbb     O2    163 -0.61950000  16.000000   ; qtot 0.151000
  164          n      6    bbb     N4    164 -0.46580000  14.010000   ; qtot -0.314800
  165         hn      6    bbb    H21    165 0.31480000   1.008000   ; qtot -0.000000
; residue    7 bbb rtp bbb q -0.0
  166         c3      7    bbb     C1    166 0.44180000  12.010000   ; qtot 0.441800
  167         h1      7    bbb     H1    167 -0.03530000   1.008000   ; qtot 0.406500
  168         h1      7    bbb     H2    168 -0.03530000   1.008000   ; qtot 0.371200
  169         c3      7    bbb     C2    169 -0.28250000  12.010000   ; qtot 0.088700
  170         h1      7    bbb     H3    170 0.15710000   1.008000   ; qtot 0.245800
  171         h1      7    bbb     H4    171 0.15710000   1.008000   ; qtot 0.402900
  172         n3      7    bbb     N1    172 -0.74090000  14.010000   ; qtot -0.338000
  173         c3      7    bbb     C3    173 0.51680000  12.010000   ; qtot 0.178800
  174         h1      7    bbb     H5    174 -0.05230000   1.008000   ; qtot 0.126500
  175         h1      7    bbb     H6    175 -0.05230000   1.008000   ; qtot 0.074200
  176         c3      7    bbb     C4    176 0.51680000  12.010000   ; qtot 0.591000
  177         h1      7    bbb     H7    177 -0.05230000   1.008000   ; qtot 0.538700
  178         h1      7    bbb     H8    178 -0.05230000   1.008000   ; qtot 0.486400
  179         c3      7    bbb     C5    179 -0.60390000  12.010000   ; qtot -0.117500
  180         hc      7    bbb     H9    180 0.16730000   1.008000   ; qtot 0.049800
  181         hc      7    bbb    H10    181 0.16730000   1.008000   ; qtot 0.217100
  182         c3      7    bbb     C6    182 -0.60390000  12.010000   ; qtot -0.386800
  183         hc      7    bbb    H11    183 0.16730000   1.008000   ; qtot -0.219500
  184         hc      7    bbb    H12    184 0.16730000   1.008000   ; qtot -0.052200
  185          c      7    bbb     C7    185 0.72110000  12.010000   ; qtot 0.668900
  186          c      7    bbb     C8    186 0.72110000  12.010000   ; qtot 1.390000
  187          o      7    bbb     O1    187 -0.61950000  16.000000   ; qtot 0.770500
  188          o      7    bbb     O2    188 -0.61950000  16.000000   ; qtot 0.151000
  189          n      7    bbb     N4    189 -0.46580000  14.010000   ; qtot -0.314800
  190         hn      7    bbb    H21    190 0.31480000   1.008000   ; qtot -0.000000
; residue    8 bbb rtp bbb q -0.0
  191         c3      8    bbb     C1    191 0.44180000  12.010000   ; qtot 0.441800
  192         h1      8    bbb     H1    192 -0.03530000   1.008000   ; qtot 0.406500
  193         h1      8    bbb     H2    193 -0.03530000   1.008000   ; qtot 0.371200
  194         c3      8    bbb     C2    194 -0.28250000  12.010000   ; qtot 0.088700
  195         h1      8    bbb     H3    195 0.15710000   1.008000   ; qtot 0.245800
  196         h1      8    bbb     H4    196 0.15710000   1.008000   ; qtot 0.402900
  197         n3      8    bbb     N1    197 -0.74090000  14.010000   ; qtot -0.338000
  198         c3      8    bbb     C3    198 0.51680000  12.010000   ; qtot 0.178800
  199         h1      8    bbb     H5    199 -0.05230000   1.008000   ; qtot 0.126500
  200         h1      8    bbb     H6    200 -0.05230000   1.008000   ; qtot 0.074200
  201         c3      8    bbb     C4    201 0.51680000  12.010000   ; qtot 0.591000
  202         h1      8    bbb     H7    202 -0.05230000   1.008000   ; qtot 0.538700
  203         h1      8    bbb     H8    203 -0.05230000   1.008000   ; qtot 0.486400
  204         c3      8    bbb     C5    204 -0.60390000  12.010000   ; qtot -0.117500
  205         hc      8    bbb     H9    205 0.16730000   1.008000   ; qtot 0.049800
  206         hc      8    bbb    H10    206 0.16730000   1.008000   ; qtot 0.217100
  207         c3      8    bbb     C6    207 -0.60390000  12.010000   ; qtot -0.386800
  208         hc      8    bbb    H11    208 0.16730000   1.008000   ; qtot -0.219500
  209         hc      8    bbb    H12    209 0.16730000   1.008000   ; qtot -0.052200
  210          c      8    bbb     C7    210 0.72110000  12.010000   ; qtot 0.668900
  211          c      8    bbb     C8    211 0.72110000  12.010000   ; qtot 1.390000
  212          o      8    bbb     O1    212 -0.61950000  16.000000   ; qtot 0.770500
  213          o      8    bbb     O2    213 -0.61950000  16.000000   ; qtot 0.151000
  214          n      8    bbb     N4    214 -0.46580000  14.010000   ; qtot -0.314800
  215         hn      8    bbb    H21    215 0.31480000   1.008000   ; qtot -0.000000
; residue    9 bbb rtp bbb q -0.0
  216         c3      9    bbb     C1    216 0.44180000  12.010000   ; qtot 0.441800
  217         h1      9    bbb     H1    217 -0.03530000   1.008000   ; qtot 0.406500
  218         h1      9    bbb     H2    218 -0.03530000   1.008000   ; qtot 0.371200
  219         c3      9    bbb     C2    219 -0.28250000  12.010000   ; qtot 0.088700
  220         h1      9    bbb     H3    220 0.15710000   1.008000   ; qtot 0.245800
  221         h1      9    bbb     H4    221 0.15710000   1.008000   ; qtot 0.402900
  222         n3      9    bbb     N1    222 -0.74090000  14.010000   ; qtot -0.338000
  223         c3      9    bbb     C3    223 0.51680000  12.010000   ; qtot 0.178800
  224         h1      9    bbb     H5    224 -0.05230000   1.008000   ; qtot 0.126500
  225         h1      9    bbb     H6    225 -0.05230000   1.008000   ; qtot 0.074200
  226         c3      9    bbb     C4    226 0.51680000  12.010000   ; qtot 0.591000
  227         h1      9    bbb     H7    227 -0.05230000   1.008000   ; qtot 0.538700
  228         h1      9    bbb     H8    228 -0.05230000   1.008000   ; qtot 0.486400
  229         c3      9    bbb     C5    229 -0.60390000  12.010000   ; qtot -0.117500
  230         hc      9    bbb     H9    230 0.16730000   1.008000   ; qtot 0.049800
  231         hc      9    bbb    H10    231 0.16730000   1.008000   ; qtot 0.217100
  232         c3      9    bbb     C6    232 -0.60390000  12.010000   ; qtot -0.386800
  233         hc      9    bbb    H11    233 0.16730000   1.008000   ; qtot -0.219500
  234         hc      9    bbb    H12    234 0.16730000   1.008000   ; qtot -0.052200
  235          c      9    bbb     C7    235 0.72110000  12.010000   ; qtot 0.668900
  236          c      9    bbb     C8    236 0.72110000  12.010000   ; qtot 1.390000
  237          o      9    bbb     O1    237 -0.61950000  16.000000   ; qtot 0.770500
  238          o      9    bbb     O2    238 -0.61950000  16.000000   ; qtot 0.151000
  239          n      9    bbb     N4    239 -0.46580000  14.010000   ; qtot -0.314800
  240         hn      9    bbb    H21    240 0.31480000   1.008000   ; qtot -0.000000
; residue   10 bbb rtp bbb q -0.0
  241         c3     10    bbb     C1    241 0.44180000  12.010000   ; qtot 0.441800
  242         h1     10    bbb     H1    242 -0.03530000   1.008000   ; qtot 0.406500
  243         h1     10    bbb     H2    243 -0.03530000   1.008000   ; qtot 0.371200
  244         c3     10    bbb     C2    244 -0.28250000  12.010000   ; qtot 0.088700
  245         h1     10    bbb     H3    245 0.15710000   1.008000   ; qtot 0.245800
  246         h1     10    bbb     H4    246 0.15710000   1.008000   ; qtot 0.402900
  247         n3     10    bbb     N1    247 -0.74090000  14.010000   ; qtot -0.338000
  248         c3     10    bbb     C3    248 0.51680000  12.010000   ; qtot 0.178800
  249         h1     10    bbb     H5    249 -0.05230000   1.008000   ; qtot 0.126500
  250         h1     10    bbb     H6    250 -0.05230000   1.008000   ; qtot 0.074200
  251         c3     10    bbb     C4    251 0.51680000  12.010000   ; qtot 0.591000
  252         h1     10    bbb     H7    252 -0.05230000   1.008000   ; qtot 0.538700
  253         h1     10    bbb     H8    253 -0.05230000   1.008000   ; qtot 0.486400
  254         c3     10    bbb     C5    254 -0.60390000  12.010000   ; qtot -0.117500
  255         hc     10    bbb     H9    255 0.16730000   1.008000   ; qtot 0.049800
  256         hc     10    bbb    H10    256 0.16730000   1.008000   ; qtot 0.217100
  257         c3     10    bbb     C6    257 -0.60390000  12.010000   ; qtot -0.386800
  258         hc     10    bbb    H11    258 0.16730000   1.008000   ; qtot -0.219500
  259         hc     10    bbb    H12    259 0.16730000   1.008000   ; qtot -0.052200
  260          c     10    bbb     C7    260 0.72110000  12.010000   ; qtot 0.668900
  261          c     10    bbb     C8    261 0.72110000  12.010000   ; qtot 1.390000
  262          o     10    bbb     O1    262 -0.61950000  16.000000   ; qtot 0.770500
  263          o     10    bbb     O2    263 -0.61950000  16.000000   ; qtot 0.151000
  264          n     10    bbb     N4    264 -0.46580000  14.010000   ; qtot -0.314800
  265         hn     10    bbb    H21    265 0.31480000   1.008000   ; qtot -0.000000
; residue   11 bbb rtp bbb q -0.0
  266         c3     11    bbb     C1    266 0.44180000  12.010000   ; qtot 0.441800
  267         h1     11    bbb     H1    267 -0.03530000   1.008000   ; qtot 0.406500
  268         h1     11    bbb     H2    268 -0.03530000   1.008000   ; qtot 0.371200
  269         c3     11    bbb     C2    269 -0.28250000  12.010000   ; qtot 0.088700
  270         h1     11    bbb     H3    270 0.15710000   1.008000   ; qtot 0.245800
  271         h1     11    bbb     H4    271 0.15710000   1.008000   ; qtot 0.402900
  272         n3     11    bbb     N1    272 -0.74090000  14.010000   ; qtot -0.338000
  273         c3     11    bbb     C3    273 0.51680000  12.010000   ; qtot 0.178800
  274         h1     11    bbb     H5    274 -0.05230000   1.008000   ; qtot 0.126500
  275         h1     11    bbb     H6    275 -0.05230000   1.008000   ; qtot 0.074200
  276         c3     11    bbb     C4    276 0.51680000  12.010000   ; qtot 0.591000
  277         h1     11    bbb     H7    277 -0.05230000   1.008000   ; qtot 0.538700
  278         h1     11    bbb     H8    278 -0.05230000   1.008000   ; qtot 0.486400
  279         c3     11    bbb     C5    279 -0.60390000  12.010000   ; qtot -0.117500
  280         hc     11    bbb     H9    280 0.16730000   1.008000   ; qtot 0.049800
  281         hc     11    bbb    H10    281 0.16730000   1.008000   ; qtot 0.217100
  282         c3     11    bbb     C6    282 -0.60390000  12.010000   ; qtot -0.386800
  283         hc     11    bbb    H11    283 0.16730000   1.008000   ; qtot -0.219500
  284         hc     11    bbb    H12    284 0.16730000   1.008000   ; qtot -0.052200
  285          c     11    bbb     C7    285 0.72110000  12.010000   ; qtot 0.668900
  286          c     11    bbb     C8    286 0.72110000  12.010000   ; qtot 1.390000
  287          o     11    bbb     O1    287 -0.61950000  16.000000   ; qtot 0.770500
  288          o     11    bbb     O2    288 -0.61950000  16.000000   ; qtot 0.151000
  289          n     11    bbb     N4    289 -0.46580000  14.010000   ; qtot -0.314800
  290         hn     11    bbb    H21    290 0.31480000   1.008000   ; qtot -0.000000
; residue   12 bbb rtp bbb q -0.0
  291         c3     12    bbb     C1    291 0.44180000  12.010000   ; qtot 0.441800
  292         h1     12    bbb     H1    292 -0.03530000   1.008000   ; qtot 0.406500
  293         h1     12    bbb     H2    293 -0.03530000   1.008000   ; qtot 0.371200
  294         c3     12    bbb     C2    294 -0.28250000  12.010000   ; qtot 0.088700
  295         h1     12    bbb     H3    295 0.15710000   1.008000   ; qtot 0.245800
  296         h1     12    bbb     H4    296 0.15710000   1.008000   ; qtot 0.402900
  297         n3     12    bbb     N1    297 -0.74090000  14.010000   ; qtot -0.338000
  298         c3     12    bbb     C3    298 0.51680000  12.010000   ; qtot 0.178800
  299         h1     12    bbb     H5    299 -0.05230000   1.008000   ; qtot 0.126500
  300         h1     12    bbb     H6    300 -0.05230000   1.008000   ; qtot 0.074200
  301         c3     12    bbb     C4    301 0.51680000  12.010000   ; qtot 0.591000
  302         h1     12    bbb     H7    302 -0.05230000   1.008000   ; qtot 0.538700
  303         h1     12    bbb     H8    303 -0.05230000   1.008000   ; qtot 0.486400
  304         c3     12    bbb     C5    304 -0.60390000  12.010000   ; qtot -0.117500
  305         hc     12    bbb     H9    305 0.16730000   1.008000   ; qtot 0.049800
  306         hc     12    bbb    H10    306 0.16730000   1.008000   ; qtot 0.217100
  307         c3     12    bbb     C6    307 -0.60390000  12.010000   ; qtot -0.386800
  308         hc     12    bbb    H11    308 0.16730000   1.008000   ; qtot -0.219500
  309         hc     12    bbb    H12    309 0.16730000   1.008000   ; qtot -0.052200
  310          c     12    bbb     C7    310 0.72110000  12.010000   ; qtot 0.668900
  311          c     12    bbb     C8    311 0.72110000  12.010000   ; qtot 1.390000
  312          o     12    bbb     O1    312 -0.61950000  16.000000   ; qtot 0.770500
  313          o     12    bbb     O2    313 -0.61950000  16.000000   ; qtot 0.151000
  314          n     12    bbb     N4    314 -0.46580000  14.010000   ; qtot -0.314800
  315         hn     12    bbb    H21    315 0.31480000   1.008000   ; qtot -0.000000
; residue   13 bbb rtp bbb q -0.0
  316         c3     13    bbb     C1    316 0.44180000  12.010000   ; qtot 0.441800
  317         h1     13    bbb     H1    317 -0.03530000   1.008000   ; qtot 0.406500
  318         h1     13    bbb     H2    318 -0.03530000   1.008000   ; qtot 0.371200
  319         c3     13    bbb     C2    319 -0.28250000  12.010000   ; qtot 0.088700
  320         h1     13    bbb     H3    320 0.15710000   1.008000   ; qtot 0.245800
  321         h1     13    bbb     H4    321 0.15710000   1.008000   ; qtot 0.402900
  322         n3     13    bbb     N1    322 -0.74090000  14.010000   ; qtot -0.338000
  323         c3     13    bbb     C3    323 0.51680000  12.010000   ; qtot 0.178800
  324         h1     13    bbb     H5    324 -0.05230000   1.008000   ; qtot 0.126500
  325         h1     13    bbb     H6    325 -0.05230000   1.008000   ; qtot 0.074200
  326         c3     13    bbb     C4    326 0.51680000  12.010000   ; qtot 0.591000
  327         h1     13    bbb     H7    327 -0.05230000   1.008000   ; qtot 0.538700
  328         h1     13    bbb     H8    328 -0.05230000   1.008000   ; qtot 0.486400
  329         c3     13    bbb     C5    329 -0.60390000  12.010000   ; qtot -0.117500
  330         hc     13    bbb     H9    330 0.16730000   1.008000   ; qtot 0.049800
  331         hc     13    bbb    H10    331 0.16730000   1.008000   ; qtot 0.217100
  332         c3     13    bbb     C6    332 -0.60390000  12.010000   ; qtot -0.386800
  333         hc     13    bbb    H11    333 0.16730000   1.008000   ; qtot -0.219500
  334         hc     13    bbb    H12    334 0.16730000   1.008000   ; qtot -0.052200
  335          c     13    bbb     C7    335 0.72110000  12.010000   ; qtot 0.668900
  336          c     13    bbb     C8    336 0.72110000  12.010000   ; qtot 1.390000
  337          o     13    bbb     O1    337 -0.61950000  16.000000   ; qtot 0.770500
  338          o     13    bbb     O2    338 -0.61950000  16.000000   ; qtot 0.151000
  339          n     13    bbb     N4    339 -0.46580000  14.010000   ; qtot -0.314800
  340         hn     13    bbb    H21    340 0.31480000   1.008000   ; qtot -0.000000
; residue   14 ccc rtp ccc q -0.0
  341          n     14    ccc     N1    341 -0.46580000  14.010000   ; qtot -0.465800
  342         hn     14    ccc     H4    342 0.31480000   1.008000   ; qtot -0.151000
  343         c3     14    ccc     C3    343 -0.28250000  12.010000   ; qtot -0.433500
  344         h1     14    ccc     H5    344 0.15710000   1.008000   ; qtot -0.276400
  345         c3     14    ccc     C4    345 0.44180000  12.010000   ; qtot 0.165400
  346         h1     14    ccc     H6    346 0.15710000   1.008000   ; qtot 0.322500
  347         h1     14    ccc     H7    347 -0.03530000   1.008000   ; qtot 0.287200
  348         h1     14    ccc     H8    348 -0.03530000   1.008000   ; qtot 0.251900
  349         n3     14    ccc     N2    349 -0.74090000  14.010000   ; qtot -0.489000
  350         c3     14    ccc     C5    350 0.51680000  12.010000   ; qtot 0.027800
  351         c3     14    ccc     C6    351 0.51680000  12.010000   ; qtot 0.544600
  352         h1     14    ccc     H9    352 -0.05230000   1.008000   ; qtot 0.492300
  353         c3     14    ccc     C7    353 -0.60390000  12.010000   ; qtot -0.111600
  354         h1     14    ccc    H10    354 -0.05230000   1.008000   ; qtot -0.163900
  355         hc     14    ccc    H11    355 0.16730000   1.008000   ; qtot 0.003400
  356         hc     14    ccc    H12    356 0.16730000   1.008000   ; qtot 0.170700
  357          c     14    ccc     C8    357 0.72110000  12.010000   ; qtot 0.891800
  358          o     14    ccc     O2    358 -0.61950000  16.000000   ; qtot 0.272300
  359         h1     14    ccc    H13    359 -0.05230000   1.008000   ; qtot 0.220000
  360         h1     14    ccc    H14    360 -0.05230000   1.008000   ; qtot 0.167700
  361         c3     14    ccc     C9    361 -0.60390000  12.010000   ; qtot -0.436200
  362         hc     14    ccc    H15    362 0.16730000   1.008000   ; qtot -0.268900
  363         hc     14    ccc    H16    363 0.16730000   1.008000   ; qtot -0.101600
  364          c     14    ccc    C10    364 0.72110000  12.010000   ; qtot 0.619500
  365          o     14    ccc     O4    365 -0.61950000  16.000000   ; qtot -0.000000
  366         c3     14    ccc    C11    366 0.08518000  12.010000   ; qtot 0.085180
  367         c3     14    ccc    C12    367 0.07918000  12.010000   ; qtot 0.164360
  368         h1     14    ccc    H17    368 0.06978000   1.008000   ; qtot 0.234140
  369         c3     14    ccc    C13    369 0.07918000  12.010000   ; qtot 0.313320
  370         c3     14    ccc    C14    370 0.03578000  12.010000   ; qtot 0.349100
  371         c3     14    ccc    C15    371 0.33498000  12.010000   ; qtot 0.684080
  372         h1     14    ccc    H18    372 0.06178000   1.008000   ; qtot 0.745860
  373         h1     14    ccc    H19    373 0.11278000   1.008000   ; qtot 0.858640
  374         h2     14    ccc    H20    374 0.12178000   1.008000   ; qtot 0.980420
  375         oh     14    ccc     O1    375 -0.56972000  16.000000   ; qtot 0.410700
  376         oh     14    ccc     O6    376 -0.57772000  16.000000   ; qtot -0.167020
  377         c3     14    ccc    C16    377 0.14548000  12.010000   ; qtot -0.021540
  378         ho     14    ccc    H21    378 0.40508000   1.008000   ; qtot 0.383540
  379         hn     14    ccc    H22    379 0.31758000   1.008000   ; qtot 0.701120
  380         h1     14    ccc    H23    380 0.06278000   1.008000   ; qtot 0.763900
  381         h1     14    ccc    H24    381 0.06278000   1.008000   ; qtot 0.826680
  382         oh     14    ccc     O7    382 -0.59472000  16.000000   ; qtot 0.231960
  383         ho     14    ccc    H25    383 0.41908000   1.008000   ; qtot 0.651040
  384         os     14    ccc     O8    384 -0.44552000  16.000000   ; qtot 0.205520
  385         ho     14    ccc    H26    385 0.41908000   1.008000   ; qtot 0.624600
  386         h1     14    ccc    H27    386 0.08578000   1.008000   ; qtot 0.710380
  387         oh     14    ccc     O9    387 -0.58672000  16.000000   ; qtot 0.123660
  388         ho     14    ccc    H28    388 0.41908000   1.008000   ; qtot 0.542740
  389         n3     14    ccc     N3    389 -0.54282000  14.010000   ; qtot -0.000080
  390         c3     14    ccc    C17    390 0.08518000  12.010000   ; qtot 0.085100
  391         c3     14    ccc    C18    391 0.07918000  12.010000   ; qtot 0.164280
  392         h1     14    ccc    H29    392 0.06978000   1.008000   ; qtot 0.234060
  393         c3     14    ccc    C19    393 0.07918000  12.010000   ; qtot 0.313240
  394         c3     14    ccc    C20    394 0.03578000  12.010000   ; qtot 0.349020
  395         c3     14    ccc    C21    395 0.33498000  12.010000   ; qtot 0.684000
  396         h1     14    ccc    H30    396 0.06178000   1.008000   ; qtot 0.745780
  397         h1     14    ccc    H31    397 0.11278000   1.008000   ; qtot 0.858560
  398         h2     14    ccc    H32    398 0.12178000   1.008000   ; qtot 0.980340
  399         oh     14    ccc    O10    399 -0.56972000  16.000000   ; qtot 0.410620
  400         oh     14    ccc    O11    400 -0.57772000  16.000000   ; qtot -0.167100
  401         c3     14    ccc    C22    401 0.14548000  12.010000   ; qtot -0.021620
  402         ho     14    ccc    H33    402 0.40508000   1.008000   ; qtot 0.383460
  403         hn     14    ccc    H34    403 0.31758000   1.008000   ; qtot 0.701040
  404         h1     14    ccc    H35    404 0.06278000   1.008000   ; qtot 0.763820
  405         h1     14    ccc    H36    405 0.06278000   1.008000   ; qtot 0.826600
  406         oh     14    ccc    O12    406 -0.59472000  16.000000   ; qtot 0.231880
  407         ho     14    ccc    H37    407 0.41908000   1.008000   ; qtot 0.650960
  408         os     14    ccc    O13    408 -0.44552000  16.000000   ; qtot 0.205440
  409         ho     14    ccc    H38    409 0.41908000   1.008000   ; qtot 0.624520
  410         h1     14    ccc    H39    410 0.08578000   1.008000   ; qtot 0.710300
  411         oh     14    ccc     O5    411 -0.58672000  16.000000   ; qtot 0.123580
  412         ho     14    ccc    H40    412 0.41908000   1.008000   ; qtot 0.542660
  413         n3     14    ccc     N4    413 -0.54282000  14.010000   ; qtot -0.000160
; residue   15 ccc rtp ccc q -0.0
  414          n     15    ccc     N1    414 -0.46580000  14.010000   ; qtot -0.465960
  415         hn     15    ccc     H4    415 0.31480000   1.008000   ; qtot -0.151160
  416         c3     15    ccc     C3    416 -0.28250000  12.010000   ; qtot -0.433660
  417         h1     15    ccc     H5    417 0.15710000   1.008000   ; qtot -0.276560
  418         c3     15    ccc     C4    418 0.44180000  12.010000   ; qtot 0.165240
  419         h1     15    ccc     H6    419 0.15710000   1.008000   ; qtot 0.322340
  420         h1     15    ccc     H7    420 -0.03530000   1.008000   ; qtot 0.287040
  421         h1     15    ccc     H8    421 -0.03530000   1.008000   ; qtot 0.251740
  422         n3     15    ccc     N2    422 -0.74090000  14.010000   ; qtot -0.489160
  423         c3     15    ccc     C5    423 0.51680000  12.010000   ; qtot 0.027640
  424         c3     15    ccc     C6    424 0.51680000  12.010000   ; qtot 0.544440
  425         h1     15    ccc     H9    425 -0.05230000   1.008000   ; qtot 0.492140
  426         c3     15    ccc     C7    426 -0.60390000  12.010000   ; qtot -0.111760
  427         h1     15    ccc    H10    427 -0.05230000   1.008000   ; qtot -0.164060
  428         hc     15    ccc    H11    428 0.16730000   1.008000   ; qtot 0.003240
  429         hc     15    ccc    H12    429 0.16730000   1.008000   ; qtot 0.170540
  430          c     15    ccc     C8    430 0.72110000  12.010000   ; qtot 0.891640
  431          o     15    ccc     O2    431 -0.61950000  16.000000   ; qtot 0.272140
  432         h1     15    ccc    H13    432 -0.05230000   1.008000   ; qtot 0.219840
  433         h1     15    ccc    H14    433 -0.05230000   1.008000   ; qtot 0.167540
  434         c3     15    ccc     C9    434 -0.60390000  12.010000   ; qtot -0.436360
  435         hc     15    ccc    H15    435 0.16730000   1.008000   ; qtot -0.269060
  436         hc     15    ccc    H16    436 0.16730000   1.008000   ; qtot -0.101760
  437          c     15    ccc    C10    437 0.72110000  12.010000   ; qtot 0.619340
  438          o     15    ccc     O4    438 -0.61950000  16.000000   ; qtot -0.000160
  439         c3     15    ccc    C11    439 0.08518000  12.010000   ; qtot 0.085020
  440         c3     15    ccc    C12    440 0.07918000  12.010000   ; qtot 0.164200
  441         h1     15    ccc    H17    441 0.06978000   1.008000   ; qtot 0.233980
  442         c3     15    ccc    C13    442 0.07918000  12.010000   ; qtot 0.313160
  443         c3     15    ccc    C14    443 0.03578000  12.010000   ; qtot 0.348940
  444         c3     15    ccc    C15    444 0.33498000  12.010000   ; qtot 0.683920
  445         h1     15    ccc    H18    445 0.06178000   1.008000   ; qtot 0.745700
  446         h1     15    ccc    H19    446 0.11278000   1.008000   ; qtot 0.858480
  447         h2     15    ccc    H20    447 0.12178000   1.008000   ; qtot 0.980260
  448         oh     15    ccc     O1    448 -0.56972000  16.000000   ; qtot 0.410540
  449         oh     15    ccc     O6    449 -0.57772000  16.000000   ; qtot -0.167180
  450         c3     15    ccc    C16    450 0.14548000  12.010000   ; qtot -0.021700
  451         ho     15    ccc    H21    451 0.40508000   1.008000   ; qtot 0.383380
  452         hn     15    ccc    H22    452 0.31758000   1.008000   ; qtot 0.700960
  453         h1     15    ccc    H23    453 0.06278000   1.008000   ; qtot 0.763740
  454         h1     15    ccc    H24    454 0.06278000   1.008000   ; qtot 0.826520
  455         oh     15    ccc     O7    455 -0.59472000  16.000000   ; qtot 0.231800
  456         ho     15    ccc    H25    456 0.41908000   1.008000   ; qtot 0.650880
  457         os     15    ccc     O8    457 -0.44552000  16.000000   ; qtot 0.205360
  458         ho     15    ccc    H26    458 0.41908000   1.008000   ; qtot 0.624440
  459         h1     15    ccc    H27    459 0.08578000   1.008000   ; qtot 0.710220
  460         oh     15    ccc     O9    460 -0.58672000  16.000000   ; qtot 0.123500
  461         ho     15    ccc    H28    461 0.41908000   1.008000   ; qtot 0.542580
  462         n3     15    ccc     N3    462 -0.54282000  14.010000   ; qtot -0.000240
  463         c3     15    ccc    C17    463 0.08518000  12.010000   ; qtot 0.084940
  464         c3     15    ccc    C18    464 0.07918000  12.010000   ; qtot 0.164120
  465         h1     15    ccc    H29    465 0.06978000   1.008000   ; qtot 0.233900
  466         c3     15    ccc    C19    466 0.07918000  12.010000   ; qtot 0.313080
  467         c3     15    ccc    C20    467 0.03578000  12.010000   ; qtot 0.348860
  468         c3     15    ccc    C21    468 0.33498000  12.010000   ; qtot 0.683840
  469         h1     15    ccc    H30    469 0.06178000   1.008000   ; qtot 0.745620
  470         h1     15    ccc    H31    470 0.11278000   1.008000   ; qtot 0.858400
  471         h2     15    ccc    H32    471 0.12178000   1.008000   ; qtot 0.980180
  472         oh     15    ccc    O10    472 -0.56972000  16.000000   ; qtot 0.410460
  473         oh     15    ccc    O11    473 -0.57772000  16.000000   ; qtot -0.167260
  474         c3     15    ccc    C22    474 0.14548000  12.010000   ; qtot -0.021780
  475         ho     15    ccc    H33    475 0.40508000   1.008000   ; qtot 0.383300
  476         hn     15    ccc    H34    476 0.31758000   1.008000   ; qtot 0.700880
  477         h1     15    ccc    H35    477 0.06278000   1.008000   ; qtot 0.763660
  478         h1     15    ccc    H36    478 0.06278000   1.008000   ; qtot 0.826440
  479         oh     15    ccc    O12    479 -0.59472000  16.000000   ; qtot 0.231720
  480         ho     15    ccc    H37    480 0.41908000   1.008000   ; qtot 0.650800
  481         os     15    ccc    O13    481 -0.44552000  16.000000   ; qtot 0.205280
  482         ho     15    ccc    H38    482 0.41908000   1.008000   ; qtot 0.624360
  483         h1     15    ccc    H39    483 0.08578000   1.008000   ; qtot 0.710140
  484         oh     15    ccc     O5    484 -0.58672000  16.000000   ; qtot 0.123420
  485         ho     15    ccc    H40    485 0.41908000   1.008000   ; qtot 0.542500
  486         n3     15    ccc     N4    486 -0.54282000  14.010000   ; qtot -0.000320
; residue   16 ccc rtp ccc q -0.0
  487          n     16    ccc     N1    487 -0.46580000  14.010000   ; qtot -0.466120
  488         hn     16    ccc     H4    488 0.31480000   1.008000   ; qtot -0.151320
  489         c3     16    ccc     C3    489 -0.28250000  12.010000   ; qtot -0.433820
  490         h1     16    ccc     H5    490 0.15710000   1.008000   ; qtot -0.276720
  491         c3     16    ccc     C4    491 0.44180000  12.010000   ; qtot 0.165080
  492         h1     16    ccc     H6    492 0.15710000   1.008000   ; qtot 0.322180
  493         h1     16    ccc     H7    493 -0.03530000   1.008000   ; qtot 0.286880
  494         h1     16    ccc     H8    494 -0.03530000   1.008000   ; qtot 0.251580
  495         n3     16    ccc     N2    495 -0.74090000  14.010000   ; qtot -0.489320
  496         c3     16    ccc     C5    496 0.51680000  12.010000   ; qtot 0.027480
  497         c3     16    ccc     C6    497 0.51680000  12.010000   ; qtot 0.544280
  498         h1     16    ccc     H9    498 -0.05230000   1.008000   ; qtot 0.491980
  499         c3     16    ccc     C7    499 -0.60390000  12.010000   ; qtot -0.111920
  500         h1     16    ccc    H10    500 -0.05230000   1.008000   ; qtot -0.164220
  501         hc     16    ccc    H11    501 0.16730000   1.008000   ; qtot 0.003080
  502         hc     16    ccc    H12    502 0.16730000   1.008000   ; qtot 0.170380
  503          c     16    ccc     C8    503 0.72110000  12.010000   ; qtot 0.891480
  504          o     16    ccc     O2    504 -0.61950000  16.000000   ; qtot 0.271980
  505         h1     16    ccc    H13    505 -0.05230000   1.008000   ; qtot 0.219680
  506         h1     16    ccc    H14    506 -0.05230000   1.008000   ; qtot 0.167380
  507         c3     16    ccc     C9    507 -0.60390000  12.010000   ; qtot -0.436520
  508         hc     16    ccc    H15    508 0.16730000   1.008000   ; qtot -0.269220
  509         hc     16    ccc    H16    509 0.16730000   1.008000   ; qtot -0.101920
  510          c     16    ccc    C10    510 0.72110000  12.010000   ; qtot 0.619180
  511          o     16    ccc     O4    511 -0.61950000  16.000000   ; qtot -0.000320
  512         c3     16    ccc    C11    512 0.08518000  12.010000   ; qtot 0.084860
  513         c3     16    ccc    C12    513 0.07918000  12.010000   ; qtot 0.164040
  514         h1     16    ccc    H17    514 0.06978000   1.008000   ; qtot 0.233820
  515         c3     16    ccc    C13    515 0.07918000  12.010000   ; qtot 0.313000
  516         c3     16    ccc    C14    516 0.03578000  12.010000   ; qtot 0.348780
  517         c3     16    ccc    C15    517 0.33498000  12.010000   ; qtot 0.683760
  518         h1     16    ccc    H18    518 0.06178000   1.008000   ; qtot 0.745540
  519         h1     16    ccc    H19    519 0.11278000   1.008000   ; qtot 0.858320
  520         h2     16    ccc    H20    520 0.12178000   1.008000   ; qtot 0.980100
  521         oh     16    ccc     O1    521 -0.56972000  16.000000   ; qtot 0.410380
  522         oh     16    ccc     O6    522 -0.57772000  16.000000   ; qtot -0.167340
  523         c3     16    ccc    C16    523 0.14548000  12.010000   ; qtot -0.021860
  524         ho     16    ccc    H21    524 0.40508000   1.008000   ; qtot 0.383220
  525         hn     16    ccc    H22    525 0.31758000   1.008000   ; qtot 0.700800
  526         h1     16    ccc    H23    526 0.06278000   1.008000   ; qtot 0.763580
  527         h1     16    ccc    H24    527 0.06278000   1.008000   ; qtot 0.826360
  528         oh     16    ccc     O7    528 -0.59472000  16.000000   ; qtot 0.231640
  529         ho     16    ccc    H25    529 0.41908000   1.008000   ; qtot 0.650720
  530         os     16    ccc     O8    530 -0.44552000  16.000000   ; qtot 0.205200
  531         ho     16    ccc    H26    531 0.41908000   1.008000   ; qtot 0.624280
  532         h1     16    ccc    H27    532 0.08578000   1.008000   ; qtot 0.710060
  533         oh     16    ccc     O9    533 -0.58672000  16.000000   ; qtot 0.123340
  534         ho     16    ccc    H28    534 0.41908000   1.008000   ; qtot 0.542420
  535         n3     16    ccc     N3    535 -0.54282000  14.010000   ; qtot -0.000400
  536         c3     16    ccc    C17    536 0.08518000  12.010000   ; qtot 0.084780
  537         c3     16    ccc    C18    537 0.07918000  12.010000   ; qtot 0.163960
  538         h1     16    ccc    H29    538 0.06978000   1.008000   ; qtot 0.233740
  539         c3     16    ccc    C19    539 0.07918000  12.010000   ; qtot 0.312920
  540         c3     16    ccc    C20    540 0.03578000  12.010000   ; qtot 0.348700
  541         c3     16    ccc    C21    541 0.33498000  12.010000   ; qtot 0.683680
  542         h1     16    ccc    H30    542 0.06178000   1.008000   ; qtot 0.745460
  543         h1     16    ccc    H31    543 0.11278000   1.008000   ; qtot 0.858240
  544         h2     16    ccc    H32    544 0.12178000   1.008000   ; qtot 0.980020
  545         oh     16    ccc    O10    545 -0.56972000  16.000000   ; qtot 0.410300
  546         oh     16    ccc    O11    546 -0.57772000  16.000000   ; qtot -0.167420
  547         c3     16    ccc    C22    547 0.14548000  12.010000   ; qtot -0.021940
  548         ho     16    ccc    H33    548 0.40508000   1.008000   ; qtot 0.383140
  549         hn     16    ccc    H34    549 0.31758000   1.008000   ; qtot 0.700720
  550         h1     16    ccc    H35    550 0.06278000   1.008000   ; qtot 0.763500
  551         h1     16    ccc    H36    551 0.06278000   1.008000   ; qtot 0.826280
  552         oh     16    ccc    O12    552 -0.59472000  16.000000   ; qtot 0.231560
  553         ho     16    ccc    H37    553 0.41908000   1.008000   ; qtot 0.650640
  554         os     16    ccc    O13    554 -0.44552000  16.000000   ; qtot 0.205120
  555         ho     16    ccc    H38    555 0.41908000   1.008000   ; qtot 0.624200
  556         h1     16    ccc    H39    556 0.08578000   1.008000   ; qtot 0.709980
  557         oh     16    ccc     O5    557 -0.58672000  16.000000   ; qtot 0.123260
  558         ho     16    ccc    H40    558 0.41908000   1.008000   ; qtot 0.542340
  559         n3     16    ccc     N4    559 -0.54282000  14.010000   ; qtot -0.000480
; residue   17 ccc rtp ccc q -0.0
  560          n     17    ccc     N1    560 -0.46580000  14.010000   ; qtot -0.466280
  561         hn     17    ccc     H4    561 0.31480000   1.008000   ; qtot -0.151480
  562         c3     17    ccc     C3    562 -0.28250000  12.010000   ; qtot -0.433980
  563         h1     17    ccc     H5    563 0.15710000   1.008000   ; qtot -0.276880
  564         c3     17    ccc     C4    564 0.44180000  12.010000   ; qtot 0.164920
  565         h1     17    ccc     H6    565 0.15710000   1.008000   ; qtot 0.322020
  566         h1     17    ccc     H7    566 -0.03530000   1.008000   ; qtot 0.286720
  567         h1     17    ccc     H8    567 -0.03530000   1.008000   ; qtot 0.251420
  568         n3     17    ccc     N2    568 -0.74090000  14.010000   ; qtot -0.489480
  569         c3     17    ccc     C5    569 0.51680000  12.010000   ; qtot 0.027320
  570         c3     17    ccc     C6    570 0.51680000  12.010000   ; qtot 0.544120
  571         h1     17    ccc     H9    571 -0.05230000   1.008000   ; qtot 0.491820
  572         c3     17    ccc     C7    572 -0.60390000  12.010000   ; qtot -0.112080
  573         h1     17    ccc    H10    573 -0.05230000   1.008000   ; qtot -0.164380
  574         hc     17    ccc    H11    574 0.16730000   1.008000   ; qtot 0.002920
  575         hc     17    ccc    H12    575 0.16730000   1.008000   ; qtot 0.170220
  576          c     17    ccc     C8    576 0.72110000  12.010000   ; qtot 0.891320
  577          o     17    ccc     O2    577 -0.61950000  16.000000   ; qtot 0.271820
  578         h1     17    ccc    H13    578 -0.05230000   1.008000   ; qtot 0.219520
  579         h1     17    ccc    H14    579 -0.05230000   1.008000   ; qtot 0.167220
  580         c3     17    ccc     C9    580 -0.60390000  12.010000   ; qtot -0.436680
  581         hc     17    ccc    H15    581 0.16730000   1.008000   ; qtot -0.269380
  582         hc     17    ccc    H16    582 0.16730000   1.008000   ; qtot -0.102080
  583          c     17    ccc    C10    583 0.72110000  12.010000   ; qtot 0.619020
  584          o     17    ccc     O4    584 -0.61950000  16.000000   ; qtot -0.000480
  585         c3     17    ccc    C11    585 0.08518000  12.010000   ; qtot 0.084700
  586         c3     17    ccc    C12    586 0.07918000  12.010000   ; qtot 0.163880
  587         h1     17    ccc    H17    587 0.06978000   1.008000   ; qtot 0.233660
  588         c3     17    ccc    C13    588 0.07918000  12.010000   ; qtot 0.312840
  589         c3     17    ccc    C14    589 0.03578000  12.010000   ; qtot 0.348620
  590         c3     17    ccc    C15    590 0.33498000  12.010000   ; qtot 0.683600
  591         h1     17    ccc    H18    591 0.06178000   1.008000   ; qtot 0.745380
  592         h1     17    ccc    H19    592 0.11278000   1.008000   ; qtot 0.858160
  593         h2     17    ccc    H20    593 0.12178000   1.008000   ; qtot 0.979940
  594         oh     17    ccc     O1    594 -0.56972000  16.000000   ; qtot 0.410220
  595         oh     17    ccc     O6    595 -0.57772000  16.000000   ; qtot -0.167500
  596         c3     17    ccc    C16    596 0.14548000  12.010000   ; qtot -0.022020
  597         ho     17    ccc    H21    597 0.40508000   1.008000   ; qtot 0.383060
  598         hn     17    ccc    H22    598 0.31758000   1.008000   ; qtot 0.700640
  599         h1     17    ccc    H23    599 0.06278000   1.008000   ; qtot 0.763420
  600         h1     17    ccc    H24    600 0.06278000   1.008000   ; qtot 0.826200
  601         oh     17    ccc     O7    601 -0.59472000  16.000000   ; qtot 0.231480
  602         ho     17    ccc    H25    602 0.41908000   1.008000   ; qtot 0.650560
  603         os     17    ccc     O8    603 -0.44552000  16.000000   ; qtot 0.205040
  604         ho     17    ccc    H26    604 0.41908000   1.008000   ; qtot 0.624120
  605         h1     17    ccc    H27    605 0.08578000   1.008000   ; qtot 0.709900
  606         oh     17    ccc     O9    606 -0.58672000  16.000000   ; qtot 0.123180
  607         ho     17    ccc    H28    607 0.41908000   1.008000   ; qtot 0.542260
  608         n3     17    ccc     N3    608 -0.54282000  14.010000   ; qtot -0.000560
  609         c3     17    ccc    C17    609 0.08518000  12.010000   ; qtot 0.084620
  610         c3     17    ccc    C18    610 0.07918000  12.010000   ; qtot 0.163800
  611         h1     17    ccc    H29    611 0.06978000   1.008000   ; qtot 0.233580
  612         c3     17    ccc    C19    612 0.07918000  12.010000   ; qtot 0.312760
  613         c3     17    ccc    C20    613 0.03578000  12.010000   ; qtot 0.348540
  614         c3     17    ccc    C21    614 0.33498000  12.010000   ; qtot 0.683520
  615         h1     17    ccc    H30    615 0.06178000   1.008000   ; qtot 0.745300
  616         h1     17    ccc    H31    616 0.11278000   1.008000   ; qtot 0.858080
  617         h2     17    ccc    H32    617 0.12178000   1.008000   ; qtot 0.979860
  618         oh     17    ccc    O10    618 -0.56972000  16.000000   ; qtot 0.410140
  619         oh     17    ccc    O11    619 -0.57772000  16.000000   ; qtot -0.167580
  620         c3     17    ccc    C22    620 0.14548000  12.010000   ; qtot -0.022100
  621         ho     17    ccc    H33    621 0.40508000   1.008000   ; qtot 0.382980
  622         hn     17    ccc    H34    622 0.31758000   1.008000   ; qtot 0.700560
  623         h1     17    ccc    H35    623 0.06278000   1.008000   ; qtot 0.763340
  624         h1     17    ccc    H36    624 0.06278000   1.008000   ; qtot 0.826120
  625         oh     17    ccc    O12    625 -0.59472000  16.000000   ; qtot 0.231400
  626         ho     17    ccc    H37    626 0.41908000   1.008000   ; qtot 0.650480
  627         os     17    ccc    O13    627 -0.44552000  16.000000   ; qtot 0.204960
  628         ho     17    ccc    H38    628 0.41908000   1.008000   ; qtot 0.624040
  629         h1     17    ccc    H39    629 0.08578000   1.008000   ; qtot 0.709820
  630         oh     17    ccc     O5    630 -0.58672000  16.000000   ; qtot 0.123100
  631         ho     17    ccc    H40    631 0.41908000   1.008000   ; qtot 0.542180
  632         n3     17    ccc     N4    632 -0.54282000  14.010000   ; qtot -0.000640
; residue   18 ccc rtp ccc q -0.0
  633          n     18    ccc     N1    633 -0.46580000  14.010000   ; qtot -0.466440
  634         hn     18    ccc     H4    634 0.31480000   1.008000   ; qtot -0.151640
  635         c3     18    ccc     C3    635 -0.28250000  12.010000   ; qtot -0.434140
  636         h1     18    ccc     H5    636 0.15710000   1.008000   ; qtot -0.277040
  637         c3     18    ccc     C4    637 0.44180000  12.010000   ; qtot 0.164760
  638         h1     18    ccc     H6    638 0.15710000   1.008000   ; qtot 0.321860
  639         h1     18    ccc     H7    639 -0.03530000   1.008000   ; qtot 0.286560
  640         h1     18    ccc     H8    640 -0.03530000   1.008000   ; qtot 0.251260
  641         n3     18    ccc     N2    641 -0.74090000  14.010000   ; qtot -0.489640
  642         c3     18    ccc     C5    642 0.51680000  12.010000   ; qtot 0.027160
  643         c3     18    ccc     C6    643 0.51680000  12.010000   ; qtot 0.543960
  644         h1     18    ccc     H9    644 -0.05230000   1.008000   ; qtot 0.491660
  645         c3     18    ccc     C7    645 -0.60390000  12.010000   ; qtot -0.112240
  646         h1     18    ccc    H10    646 -0.05230000   1.008000   ; qtot -0.164540
  647         hc     18    ccc    H11    647 0.16730000   1.008000   ; qtot 0.002760
  648         hc     18    ccc    H12    648 0.16730000   1.008000   ; qtot 0.170060
  649          c     18    ccc     C8    649 0.72110000  12.010000   ; qtot 0.891160
  650          o     18    ccc     O2    650 -0.61950000  16.000000   ; qtot 0.271660
  651         h1     18    ccc    H13    651 -0.05230000   1.008000   ; qtot 0.219360
  652         h1     18    ccc    H14    652 -0.05230000   1.008000   ; qtot 0.167060
  653         c3     18    ccc     C9    653 -0.60390000  12.010000   ; qtot -0.436840
  654         hc     18    ccc    H15    654 0.16730000   1.008000   ; qtot -0.269540
  655         hc     18    ccc    H16    655 0.16730000   1.008000   ; qtot -0.102240
  656          c     18    ccc    C10    656 0.72110000  12.010000   ; qtot 0.618860
  657          o     18    ccc     O4    657 -0.61950000  16.000000   ; qtot -0.000640
  658         c3     18    ccc    C11    658 0.08518000  12.010000   ; qtot 0.084540
  659         c3     18    ccc    C12    659 0.07918000  12.010000   ; qtot 0.163720
  660         h1     18    ccc    H17    660 0.06978000   1.008000   ; qtot 0.233500
  661         c3     18    ccc    C13    661 0.07918000  12.010000   ; qtot 0.312680
  662         c3     18    ccc    C14    662 0.03578000  12.010000   ; qtot 0.348460
  663         c3     18    ccc    C15    663 0.33498000  12.010000   ; qtot 0.683440
  664         h1     18    ccc    H18    664 0.06178000   1.008000   ; qtot 0.745220
  665         h1     18    ccc    H19    665 0.11278000   1.008000   ; qtot 0.858000
  666         h2     18    ccc    H20    666 0.12178000   1.008000   ; qtot 0.979780
  667         oh     18    ccc     O1    667 -0.56972000  16.000000   ; qtot 0.410060
  668         oh     18    ccc     O6    668 -0.57772000  16.000000   ; qtot -0.167660
  669         c3     18    ccc    C16    669 0.14548000  12.010000   ; qtot -0.022180
  670         ho     18    ccc    H21    670 0.40508000   1.008000   ; qtot 0.382900
  671         hn     18    ccc    H22    671 0.31758000   1.008000   ; qtot 0.700480
  672         h1     18    ccc    H23    672 0.06278000   1.008000   ; qtot 0.763260
  673         h1     18    ccc    H24    673 0.06278000   1.008000   ; qtot 0.826040
  674         oh     18    ccc     O7    674 -0.59472000  16.000000   ; qtot 0.231320
  675         ho     18    ccc    H25    675 0.41908000   1.008000   ; qtot 0.650400
  676         os     18    ccc     O8    676 -0.44552000  16.000000   ; qtot 0.204880
  677         ho     18    ccc    H26    677 0.41908000   1.008000   ; qtot 0.623960
  678         h1     18    ccc    H27    678 0.08578000   1.008000   ; qtot 0.709740
  679         oh     18    ccc     O9    679 -0.58672000  16.000000   ; qtot 0.123020
  680         ho     18    ccc    H28    680 0.41908000   1.008000   ; qtot 0.542100
  681         n3     18    ccc     N3    681 -0.54282000  14.010000   ; qtot -0.000720
  682         c3     18    ccc    C17    682 0.08518000  12.010000   ; qtot 0.084460
  683         c3     18    ccc    C18    683 0.07918000  12.010000   ; qtot 0.163640
  684         h1     18    ccc    H29    684 0.06978000   1.008000   ; qtot 0.233420
  685         c3     18    ccc    C19    685 0.07918000  12.010000   ; qtot 0.312600
  686         c3     18    ccc    C20    686 0.03578000  12.010000   ; qtot 0.348380
  687         c3     18    ccc    C21    687 0.33498000  12.010000   ; qtot 0.683360
  688         h1     18    ccc    H30    688 0.06178000   1.008000   ; qtot 0.745140
  689         h1     18    ccc    H31    689 0.11278000   1.008000   ; qtot 0.857920
  690         h2     18    ccc    H32    690 0.12178000   1.008000   ; qtot 0.979700
  691         oh     18    ccc    O10    691 -0.56972000  16.000000   ; qtot 0.409980
  692         oh     18    ccc    O11    692 -0.57772000  16.000000   ; qtot -0.167740
  693         c3     18    ccc    C22    693 0.14548000  12.010000   ; qtot -0.022260
  694         ho     18    ccc    H33    694 0.40508000   1.008000   ; qtot 0.382820
  695         hn     18    ccc    H34    695 0.31758000   1.008000   ; qtot 0.700400
  696         h1     18    ccc    H35    696 0.06278000   1.008000   ; qtot 0.763180
  697         h1     18    ccc    H36    697 0.06278000   1.008000   ; qtot 0.825960
  698         oh     18    ccc    O12    698 -0.59472000  16.000000   ; qtot 0.231240
  699         ho     18    ccc    H37    699 0.41908000   1.008000   ; qtot 0.650320
  700         os     18    ccc    O13    700 -0.44552000  16.000000   ; qtot 0.204800
  701         ho     18    ccc    H38    701 0.41908000   1.008000   ; qtot 0.623880
  702         h1     18    ccc    H39    702 0.08578000   1.008000   ; qtot 0.709660
  703         oh     18    ccc     O5    703 -0.58672000  16.000000   ; qtot 0.122940
  704         ho     18    ccc    H40    704 0.41908000   1.008000   ; qtot 0.542020
  705         n3     18    ccc     N4    705 -0.54282000  14.010000   ; qtot -0.000800
; residue   19 ccc rtp ccc q -0.0
  706          n     19    ccc     N1    706 -0.46580000  14.010000   ; qtot -0.466600
  707         hn     19    ccc     H4    707 0.31480000   1.008000   ; qtot -0.151800
  708         c3     19    ccc     C3    708 -0.28250000  12.010000   ; qtot -0.434300
  709         h1     19    ccc     H5    709 0.15710000   1.008000   ; qtot -0.277200
  710         c3     19    ccc     C4    710 0.44180000  12.010000   ; qtot 0.164600
  711         h1     19    ccc     H6    711 0.15710000   1.008000   ; qtot 0.321700
  712         h1     19    ccc     H7    712 -0.03530000   1.008000   ; qtot 0.286400
  713         h1     19    ccc     H8    713 -0.03530000   1.008000   ; qtot 0.251100
  714         n3     19    ccc     N2    714 -0.74090000  14.010000   ; qtot -0.489800
  715         c3     19    ccc     C5    715 0.51680000  12.010000   ; qtot 0.027000
  716         c3     19    ccc     C6    716 0.51680000  12.010000   ; qtot 0.543800
  717         h1     19    ccc     H9    717 -0.05230000   1.008000   ; qtot 0.491500
  718         c3     19    ccc     C7    718 -0.60390000  12.010000   ; qtot -0.112400
  719         h1     19    ccc    H10    719 -0.05230000   1.008000   ; qtot -0.164700
  720         hc     19    ccc    H11    720 0.16730000   1.008000   ; qtot 0.002600
  721         hc     19    ccc    H12    721 0.16730000   1.008000   ; qtot 0.169900
  722          c     19    ccc     C8    722 0.72110000  12.010000   ; qtot 0.891000
  723          o     19    ccc     O2    723 -0.61950000  16.000000   ; qtot 0.271500
  724         h1     19    ccc    H13    724 -0.05230000   1.008000   ; qtot 0.219200
  725         h1     19    ccc    H14    725 -0.05230000   1.008000   ; qtot 0.166900
  726         c3     19    ccc     C9    726 -0.60390000  12.010000   ; qtot -0.437000
  727         hc     19    ccc    H15    727 0.16730000   1.008000   ; qtot -0.269700
  728         hc     19    ccc    H16    728 0.16730000   1.008000   ; qtot -0.102400
  729          c     19    ccc    C10    729 0.72110000  12.010000   ; qtot 0.618700
  730          o     19    ccc     O4    730 -0.61950000  16.000000   ; qtot -0.000800
  731         c3     19    ccc    C11    731 0.08518000  12.010000   ; qtot 0.084380
  732         c3     19    ccc    C12    732 0.07918000  12.010000   ; qtot 0.163560
  733         h1     19    ccc    H17    733 0.06978000   1.008000   ; qtot 0.233340
  734         c3     19    ccc    C13    734 0.07918000  12.010000   ; qtot 0.312520
  735         c3     19    ccc    C14    735 0.03578000  12.010000   ; qtot 0.348300
  736         c3     19    ccc    C15    736 0.33498000  12.010000   ; qtot 0.683280
  737         h1     19    ccc    H18    737 0.06178000   1.008000   ; qtot 0.745060
  738         h1     19    ccc    H19    738 0.11278000   1.008000   ; qtot 0.857840
  739         h2     19    ccc    H20    739 0.12178000   1.008000   ; qtot 0.979620
  740         oh     19    ccc     O1    740 -0.56972000  16.000000   ; qtot 0.409900
  741         oh     19    ccc     O6    741 -0.57772000  16.000000   ; qtot -0.167820
  742         c3     19    ccc    C16    742 0.14548000  12.010000   ; qtot -0.022340
  743         ho     19    ccc    H21    743 0.40508000   1.008000   ; qtot 0.382740
  744         hn     19    ccc    H22    744 0.31758000   1.008000   ; qtot 0.700320
  745         h1     19    ccc    H23    745 0.06278000   1.008000   ; qtot 0.763100
  746         h1     19    ccc    H24    746 0.06278000   1.008000   ; qtot 0.825880
  747         oh     19    ccc     O7    747 -0.59472000  16.000000   ; qtot 0.231160
  748         ho     19    ccc    H25    748 0.41908000   1.008000   ; qtot 0.650240
  749         os     19    ccc     O8    749 -0.44552000  16.000000   ; qtot 0.204720
  750         ho     19    ccc    H26    750 0.41908000   1.008000   ; qtot 0.623800
  751         h1     19    ccc    H27    751 0.08578000   1.008000   ; qtot 0.709580
  752         oh     19    ccc     O9    752 -0.58672000  16.000000   ; qtot 0.122860
  753         ho     19    ccc    H28    753 0.41908000   1.008000   ; qtot 0.541940
  754         n3     19    ccc     N3    754 -0.54282000  14.010000   ; qtot -0.000880
  755         c3     19    ccc    C17    755 0.08518000  12.010000   ; qtot 0.084300
  756         c3     19    ccc    C18    756 0.07918000  12.010000   ; qtot 0.163480
  757         h1     19    ccc    H29    757 0.06978000   1.008000   ; qtot 0.233260
  758         c3     19    ccc    C19    758 0.07918000  12.010000   ; qtot 0.312440
  759         c3     19    ccc    C20    759 0.03578000  12.010000   ; qtot 0.348220
  760         c3     19    ccc    C21    760 0.33498000  12.010000   ; qtot 0.683200
  761         h1     19    ccc    H30    761 0.06178000   1.008000   ; qtot 0.744980
  762         h1     19    ccc    H31    762 0.11278000   1.008000   ; qtot 0.857760
  763         h2     19    ccc    H32    763 0.12178000   1.008000   ; qtot 0.979540
  764         oh     19    ccc    O10    764 -0.56972000  16.000000   ; qtot 0.409820
  765         oh     19    ccc    O11    765 -0.57772000  16.000000   ; qtot -0.167900
  766         c3     19    ccc    C22    766 0.14548000  12.010000   ; qtot -0.022420
  767         ho     19    ccc    H33    767 0.40508000   1.008000   ; qtot 0.382660
  768         hn     19    ccc    H34    768 0.31758000   1.008000   ; qtot 0.700240
  769         h1     19    ccc    H35    769 0.06278000   1.008000   ; qtot 0.763020
  770         h1     19    ccc    H36    770 0.06278000   1.008000   ; qtot 0.825800
  771         oh     19    ccc    O12    771 -0.59472000  16.000000   ; qtot 0.231080
  772         ho     19    ccc    H37    772 0.41908000   1.008000   ; qtot 0.650160
  773         os     19    ccc    O13    773 -0.44552000  16.000000   ; qtot 0.204640
  774         ho     19    ccc    H38    774 0.41908000   1.008000   ; qtot 0.623720
  775         h1     19    ccc    H39    775 0.08578000   1.008000   ; qtot 0.709500
  776         oh     19    ccc     O5    776 -0.58672000  16.000000   ; qtot 0.122780
  777         ho     19    ccc    H40    777 0.41908000   1.008000   ; qtot 0.541860
  778         n3     19    ccc     N4    778 -0.54282000  14.010000   ; qtot -0.000960
; residue   20 ccc rtp ccc q -0.0
  779          n     20    ccc     N1    779 -0.46580000  14.010000   ; qtot -0.466760
  780         hn     20    ccc     H4    780 0.31480000   1.008000   ; qtot -0.151960
  781         c3     20    ccc     C3    781 -0.28250000  12.010000   ; qtot -0.434460
  782         h1     20    ccc     H5    782 0.15710000   1.008000   ; qtot -0.277360
  783         c3     20    ccc     C4    783 0.44180000  12.010000   ; qtot 0.164440
  784         h1     20    ccc     H6    784 0.15710000   1.008000   ; qtot 0.321540
  785         h1     20    ccc     H7    785 -0.03530000   1.008000   ; qtot 0.286240
  786         h1     20    ccc     H8    786 -0.03530000   1.008000   ; qtot 0.250940
  787         n3     20    ccc     N2    787 -0.74090000  14.010000   ; qtot -0.489960
  788         c3     20    ccc     C5    788 0.51680000  12.010000   ; qtot 0.026840
  789         c3     20    ccc     C6    789 0.51680000  12.010000   ; qtot 0.543640
  790         h1     20    ccc     H9    790 -0.05230000   1.008000   ; qtot 0.491340
  791         c3     20    ccc     C7    791 -0.60390000  12.010000   ; qtot -0.112560
  792         h1     20    ccc    H10    792 -0.05230000   1.008000   ; qtot -0.164860
  793         hc     20    ccc    H11    793 0.16730000   1.008000   ; qtot 0.002440
  794         hc     20    ccc    H12    794 0.16730000   1.008000   ; qtot 0.169740
  795          c     20    ccc     C8    795 0.72110000  12.010000   ; qtot 0.890840
  796          o     20    ccc     O2    796 -0.61950000  16.000000   ; qtot 0.271340
  797         h1     20    ccc    H13    797 -0.05230000   1.008000   ; qtot 0.219040
  798         h1     20    ccc    H14    798 -0.05230000   1.008000   ; qtot 0.166740
  799         c3     20    ccc     C9    799 -0.60390000  12.010000   ; qtot -0.437160
  800         hc     20    ccc    H15    800 0.16730000   1.008000   ; qtot -0.269860
  801         hc     20    ccc    H16    801 0.16730000   1.008000   ; qtot -0.102560
  802          c     20    ccc    C10    802 0.72110000  12.010000   ; qtot 0.618540
  803          o     20    ccc     O4    803 -0.61950000  16.000000   ; qtot -0.000960
  804         c3     20    ccc    C11    804 0.08518000  12.010000   ; qtot 0.084220
  805         c3     20    ccc    C12    805 0.07918000  12.010000   ; qtot 0.163400
  806         h1     20    ccc    H17    806 0.06978000   1.008000   ; qtot 0.233180
  807         c3     20    ccc    C13    807 0.07918000  12.010000   ; qtot 0.312360
  808         c3     20    ccc    C14    808 0.03578000  12.010000   ; qtot 0.348140
  809         c3     20    ccc    C15    809 0.33498000  12.010000   ; qtot 0.683120
  810         h1     20    ccc    H18    810 0.06178000   1.008000   ; qtot 0.744900
  811         h1     20    ccc    H19    811 0.11278000   1.008000   ; qtot 0.857680
  812         h2     20    ccc    H20    812 0.12178000   1.008000   ; qtot 0.979460
  813         oh     20    ccc     O1    813 -0.56972000  16.000000   ; qtot 0.409740
  814         oh     20    ccc     O6    814 -0.57772000  16.000000   ; qtot -0.167980
  815         c3     20    ccc    C16    815 0.14548000  12.010000   ; qtot -0.022500
  816         ho     20    ccc    H21    816 0.40508000   1.008000   ; qtot 0.382580
  817         hn     20    ccc    H22    817 0.31758000   1.008000   ; qtot 0.700160
  818         h1     20    ccc    H23    818 0.06278000   1.008000   ; qtot 0.762940
  819         h1     20    ccc    H24    819 0.06278000   1.008000   ; qtot 0.825720
  820         oh     20    ccc     O7    820 -0.59472000  16.000000   ; qtot 0.231000
  821         ho     20    ccc    H25    821 0.41908000   1.008000   ; qtot 0.650080
  822         os     20    ccc     O8    822 -0.44552000  16.000000   ; qtot 0.204560
  823         ho     20    ccc    H26    823 0.41908000   1.008000   ; qtot 0.623640
  824         h1     20    ccc    H27    824 0.08578000   1.008000   ; qtot 0.709420
  825         oh     20    ccc     O9    825 -0.58672000  16.000000   ; qtot 0.122700
  826         ho     20    ccc    H28    826 0.41908000   1.008000   ; qtot 0.541780
  827         n3     20    ccc     N3    827 -0.54282000  14.010000   ; qtot -0.001040
  828         c3     20    ccc    C17    828 0.08518000  12.010000   ; qtot 0.084140
  829         c3     20    ccc    C18    829 0.07918000  12.010000   ; qtot 0.163320
  830         h1     20    ccc    H29    830 0.06978000   1.008000   ; qtot 0.233100
  831         c3     20    ccc    C19    831 0.07918000  12.010000   ; qtot 0.312280
  832         c3     20    ccc    C20    832 0.03578000  12.010000   ; qtot 0.348060
  833         c3     20    ccc    C21    833 0.33498000  12.010000   ; qtot 0.683040
  834         h1     20    ccc    H30    834 0.06178000   1.008000   ; qtot 0.744820
  835         h1     20    ccc    H31    835 0.11278000   1.008000   ; qtot 0.857600
  836         h2     20    ccc    H32    836 0.12178000   1.008000   ; qtot 0.979380
  837         oh     20    ccc    O10    837 -0.56972000  16.000000   ; qtot 0.409660
  838         oh     20    ccc    O11    838 -0.57772000  16.000000   ; qtot -0.168060
  839         c3     20    ccc    C22    839 0.14548000  12.010000   ; qtot -0.022580
  840         ho     20    ccc    H33    840 0.40508000   1.008000   ; qtot 0.382500
  841         hn     20    ccc    H34    841 0.31758000   1.008000   ; qtot 0.700080
  842         h1     20    ccc    H35    842 0.06278000   1.008000   ; qtot 0.762860
  843         h1     20    ccc    H36    843 0.06278000   1.008000   ; qtot 0.825640
  844         oh     20    ccc    O12    844 -0.59472000  16.000000   ; qtot 0.230920
  845         ho     20    ccc    H37    845 0.41908000   1.008000   ; qtot 0.650000
  846         os     20    ccc    O13    846 -0.44552000  16.000000   ; qtot 0.204480
  847         ho     20    ccc    H38    847 0.41908000   1.008000   ; qtot 0.623560
  848         h1     20    ccc    H39    848 0.08578000   1.008000   ; qtot 0.709340
  849         oh     20    ccc     O5    849 -0.58672000  16.000000   ; qtot 0.122620
  850         ho     20    ccc    H40    850 0.41908000   1.008000   ; qtot 0.541700
  851         n3     20    ccc     N4    851 -0.54282000  14.010000   ; qtot -0.001120
; residue   21 ccc rtp ccc q -0.0
  852          n     21    ccc     N1    852 -0.46580000  14.010000   ; qtot -0.466920
  853         hn     21    ccc     H4    853 0.31480000   1.008000   ; qtot -0.152120
  854         c3     21    ccc     C3    854 -0.28250000  12.010000   ; qtot -0.434620
  855         h1     21    ccc     H5    855 0.15710000   1.008000   ; qtot -0.277520
  856         c3     21    ccc     C4    856 0.44180000  12.010000   ; qtot 0.164280
  857         h1     21    ccc     H6    857 0.15710000   1.008000   ; qtot 0.321380
  858         h1     21    ccc     H7    858 -0.03530000   1.008000   ; qtot 0.286080
  859         h1     21    ccc     H8    859 -0.03530000   1.008000   ; qtot 0.250780
  860         n3     21    ccc     N2    860 -0.74090000  14.010000   ; qtot -0.490120
  861         c3     21    ccc     C5    861 0.51680000  12.010000   ; qtot 0.026680
  862         c3     21    ccc     C6    862 0.51680000  12.010000   ; qtot 0.543480
  863         h1     21    ccc     H9    863 -0.05230000   1.008000   ; qtot 0.491180
  864         c3     21    ccc     C7    864 -0.60390000  12.010000   ; qtot -0.112720
  865         h1     21    ccc    H10    865 -0.05230000   1.008000   ; qtot -0.165020
  866         hc     21    ccc    H11    866 0.16730000   1.008000   ; qtot 0.002280
  867         hc     21    ccc    H12    867 0.16730000   1.008000   ; qtot 0.169580
  868          c     21    ccc     C8    868 0.72110000  12.010000   ; qtot 0.890680
  869          o     21    ccc     O2    869 -0.61950000  16.000000   ; qtot 0.271180
  870         h1     21    ccc    H13    870 -0.05230000   1.008000   ; qtot 0.218880
  871         h1     21    ccc    H14    871 -0.05230000   1.008000   ; qtot 0.166580
  872         c3     21    ccc     C9    872 -0.60390000  12.010000   ; qtot -0.437320
  873         hc     21    ccc    H15    873 0.16730000   1.008000   ; qtot -0.270020
  874         hc     21    ccc    H16    874 0.16730000   1.008000   ; qtot -0.102720
  875          c     21    ccc    C10    875 0.72110000  12.010000   ; qtot 0.618380
  876          o     21    ccc     O4    876 -0.61950000  16.000000   ; qtot -0.001120
  877         c3     21    ccc    C11    877 0.08518000  12.010000   ; qtot 0.084060
  878         c3     21    ccc    C12    878 0.07918000  12.010000   ; qtot 0.163240
  879         h1     21    ccc    H17    879 0.06978000   1.008000   ; qtot 0.233020
  880         c3     21    ccc    C13    880 0.07918000  12.010000   ; qtot 0.312200
  881         c3     21    ccc    C14    881 0.03578000  12.010000   ; qtot 0.347980
  882         c3     21    ccc    C15    882 0.33498000  12.010000   ; qtot 0.682960
  883         h1     21    ccc    H18    883 0.06178000   1.008000   ; qtot 0.744740
  884         h1     21    ccc    H19    884 0.11278000   1.008000   ; qtot 0.857520
  885         h2     21    ccc    H20    885 0.12178000   1.008000   ; qtot 0.979300
  886         oh     21    ccc     O1    886 -0.56972000  16.000000   ; qtot 0.409580
  887         oh     21    ccc     O6    887 -0.57772000  16.000000   ; qtot -0.168140
  888         c3     21    ccc    C16    888 0.14548000  12.010000   ; qtot -0.022660
  889         ho     21    ccc    H21    889 0.40508000   1.008000   ; qtot 0.382420
  890         hn     21    ccc    H22    890 0.31758000   1.008000   ; qtot 0.700000
  891         h1     21    ccc    H23    891 0.06278000   1.008000   ; qtot 0.762780
  892         h1     21    ccc    H24    892 0.06278000   1.008000   ; qtot 0.825560
  893         oh     21    ccc     O7    893 -0.59472000  16.000000   ; qtot 0.230840
  894         ho     21    ccc    H25    894 0.41908000   1.008000   ; qtot 0.649920
  895         os     21    ccc     O8    895 -0.44552000  16.000000   ; qtot 0.204400
  896         ho     21    ccc    H26    896 0.41908000   1.008000   ; qtot 0.623480
  897         h1     21    ccc    H27    897 0.08578000   1.008000   ; qtot 0.709260
  898         oh     21    ccc     O9    898 -0.58672000  16.000000   ; qtot 0.122540
  899         ho     21    ccc    H28    899 0.41908000   1.008000   ; qtot 0.541620
  900         n3     21    ccc     N3    900 -0.54282000  14.010000   ; qtot -0.001200
  901         c3     21    ccc    C17    901 0.08518000  12.010000   ; qtot 0.083980
  902         c3     21    ccc    C18    902 0.07918000  12.010000   ; qtot 0.163160
  903         h1     21    ccc    H29    903 0.06978000   1.008000   ; qtot 0.232940
  904         c3     21    ccc    C19    904 0.07918000  12.010000   ; qtot 0.312120
  905         c3     21    ccc    C20    905 0.03578000  12.010000   ; qtot 0.347900
  906         c3     21    ccc    C21    906 0.33498000  12.010000   ; qtot 0.682880
  907         h1     21    ccc    H30    907 0.06178000   1.008000   ; qtot 0.744660
  908         h1     21    ccc    H31    908 0.11278000   1.008000   ; qtot 0.857440
  909         h2     21    ccc    H32    909 0.12178000   1.008000   ; qtot 0.979220
  910         oh     21    ccc    O10    910 -0.56972000  16.000000   ; qtot 0.409500
  911         oh     21    ccc    O11    911 -0.57772000  16.000000   ; qtot -0.168220
  912         c3     21    ccc    C22    912 0.14548000  12.010000   ; qtot -0.022740
  913         ho     21    ccc    H33    913 0.40508000   1.008000   ; qtot 0.382340
  914         hn     21    ccc    H34    914 0.31758000   1.008000   ; qtot 0.699920
  915         h1     21    ccc    H35    915 0.06278000   1.008000   ; qtot 0.762700
  916         h1     21    ccc    H36    916 0.06278000   1.008000   ; qtot 0.825480
  917         oh     21    ccc    O12    917 -0.59472000  16.000000   ; qtot 0.230760
  918         ho     21    ccc    H37    918 0.41908000   1.008000   ; qtot 0.649840
  919         os     21    ccc    O13    919 -0.44552000  16.000000   ; qtot 0.204320
  920         ho     21    ccc    H38    920 0.41908000   1.008000   ; qtot 0.623400
  921         h1     21    ccc    H39    921 0.08578000   1.008000   ; qtot 0.709180
  922         oh     21    ccc     O5    922 -0.58672000  16.000000   ; qtot 0.122459
  923         ho     21    ccc    H40    923 0.41908000   1.008000   ; qtot 0.541539
  924         n3     21    ccc     N4    924 -0.54282000  14.010000   ; qtot -0.001281
; residue   22 ccc rtp ccc q -0.0
  925          n     22    ccc     N1    925 -0.46580000  14.010000   ; qtot -0.467081
  926         hn     22    ccc     H4    926 0.31480000   1.008000   ; qtot -0.152281
  927         c3     22    ccc     C3    927 -0.28250000  12.010000   ; qtot -0.434781
  928         h1     22    ccc     H5    928 0.15710000   1.008000   ; qtot -0.277681
  929         c3     22    ccc     C4    929 0.44180000  12.010000   ; qtot 0.164119
  930         h1     22    ccc     H6    930 0.15710000   1.008000   ; qtot 0.321219
  931         h1     22    ccc     H7    931 -0.03530000   1.008000   ; qtot 0.285919
  932         h1     22    ccc     H8    932 -0.03530000   1.008000   ; qtot 0.250619
  933         n3     22    ccc     N2    933 -0.74090000  14.010000   ; qtot -0.490281
  934         c3     22    ccc     C5    934 0.51680000  12.010000   ; qtot 0.026519
  935         c3     22    ccc     C6    935 0.51680000  12.010000   ; qtot 0.543319
  936         h1     22    ccc     H9    936 -0.05230000   1.008000   ; qtot 0.491019
  937         c3     22    ccc     C7    937 -0.60390000  12.010000   ; qtot -0.112881
  938         h1     22    ccc    H10    938 -0.05230000   1.008000   ; qtot -0.165181
  939         hc     22    ccc    H11    939 0.16730000   1.008000   ; qtot 0.002119
  940         hc     22    ccc    H12    940 0.16730000   1.008000   ; qtot 0.169419
  941          c     22    ccc     C8    941 0.72110000  12.010000   ; qtot 0.890519
  942          o     22    ccc     O2    942 -0.61950000  16.000000   ; qtot 0.271019
  943         h1     22    ccc    H13    943 -0.05230000   1.008000   ; qtot 0.218719
  944         h1     22    ccc    H14    944 -0.05230000   1.008000   ; qtot 0.166419
  945         c3     22    ccc     C9    945 -0.60390000  12.010000   ; qtot -0.437481
  946         hc     22    ccc    H15    946 0.16730000   1.008000   ; qtot -0.270181
  947         hc     22    ccc    H16    947 0.16730000   1.008000   ; qtot -0.102881
  948          c     22    ccc    C10    948 0.72110000  12.010000   ; qtot 0.618219
  949          o     22    ccc     O4    949 -0.61950000  16.000000   ; qtot -0.001281
  950         c3     22    ccc    C11    950 0.08518000  12.010000   ; qtot 0.083899
  951         c3     22    ccc    C12    951 0.07918000  12.010000   ; qtot 0.163079
  952         h1     22    ccc    H17    952 0.06978000   1.008000   ; qtot 0.232859
  953         c3     22    ccc    C13    953 0.07918000  12.010000   ; qtot 0.312039
  954         c3     22    ccc    C14    954 0.03578000  12.010000   ; qtot 0.347819
  955         c3     22    ccc    C15    955 0.33498000  12.010000   ; qtot 0.682799
  956         h1     22    ccc    H18    956 0.06178000   1.008000   ; qtot 0.744579
  957         h1     22    ccc    H19    957 0.11278000   1.008000   ; qtot 0.857359
  958         h2     22    ccc    H20    958 0.12178000   1.008000   ; qtot 0.979139
  959         oh     22    ccc     O1    959 -0.56972000  16.000000   ; qtot 0.409419
  960         oh     22    ccc     O6    960 -0.57772000  16.000000   ; qtot -0.168301
  961         c3     22    ccc    C16    961 0.14548000  12.010000   ; qtot -0.022821
  962         ho     22    ccc    H21    962 0.40508000   1.008000   ; qtot 0.382259
  963         hn     22    ccc    H22    963 0.31758000   1.008000   ; qtot 0.699839
  964         h1     22    ccc    H23    964 0.06278000   1.008000   ; qtot 0.762619
  965         h1     22    ccc    H24    965 0.06278000   1.008000   ; qtot 0.825399
  966         oh     22    ccc     O7    966 -0.59472000  16.000000   ; qtot 0.230679
  967         ho     22    ccc    H25    967 0.41908000   1.008000   ; qtot 0.649759
  968         os     22    ccc     O8    968 -0.44552000  16.000000   ; qtot 0.204239
  969         ho     22    ccc    H26    969 0.41908000   1.008000   ; qtot 0.623319
  970         h1     22    ccc    H27    970 0.08578000   1.008000   ; qtot 0.709099
  971         oh     22    ccc     O9    971 -0.58672000  16.000000   ; qtot 0.122379
  972         ho     22    ccc    H28    972 0.41908000   1.008000   ; qtot 0.541459
  973         n3     22    ccc     N3    973 -0.54282000  14.010000   ; qtot -0.001361
  974         c3     22    ccc    C17    974 0.08518000  12.010000   ; qtot 0.083819
  975         c3     22    ccc    C18    975 0.07918000  12.010000   ; qtot 0.162999
  976         h1     22    ccc    H29    976 0.06978000   1.008000   ; qtot 0.232779
  977         c3     22    ccc    C19    977 0.07918000  12.010000   ; qtot 0.311959
  978         c3     22    ccc    C20    978 0.03578000  12.010000   ; qtot 0.347739
  979         c3     22    ccc    C21    979 0.33498000  12.010000   ; qtot 0.682719
  980         h1     22    ccc    H30    980 0.06178000   1.008000   ; qtot 0.744499
  981         h1     22    ccc    H31    981 0.11278000   1.008000   ; qtot 0.857279
  982         h2     22    ccc    H32    982 0.12178000   1.008000   ; qtot 0.979059
  983         oh     22    ccc    O10    983 -0.56972000  16.000000   ; qtot 0.409339
  984         oh     22    ccc    O11    984 -0.57772000  16.000000   ; qtot -0.168381
  985         c3     22    ccc    C22    985 0.14548000  12.010000   ; qtot -0.022901
  986         ho     22    ccc    H33    986 0.40508000   1.008000   ; qtot 0.382179
  987         hn     22    ccc    H34    987 0.31758000   1.008000   ; qtot 0.699759
  988         h1     22    ccc    H35    988 0.06278000   1.008000   ; qtot 0.762539
  989         h1     22    ccc    H36    989 0.06278000   1.008000   ; qtot 0.825319
  990         oh     22    ccc    O12    990 -0.59472000  16.000000   ; qtot 0.230599
  991         ho     22    ccc    H37    991 0.41908000   1.008000   ; qtot 0.649679
  992         os     22    ccc    O13    992 -0.44552000  16.000000   ; qtot 0.204159
  993         ho     22    ccc    H38    993 0.41908000   1.008000   ; qtot 0.623239
  994         h1     22    ccc    H39    994 0.08578000   1.008000   ; qtot 0.709019
  995         oh     22    ccc     O5    995 -0.58672000  16.000000   ; qtot 0.122299
  996         ho     22    ccc    H40    996 0.41908000   1.008000   ; qtot 0.541379
  997         n3     22    ccc     N4    997 -0.54282000  14.010000   ; qtot -0.001441
; residue   23 ccc rtp ccc q -0.0
  998          n     23    ccc     N1    998 -0.46580000  14.010000   ; qtot -0.467241
  999         hn     23    ccc     H4    999 0.31480000   1.008000   ; qtot -0.152441
 1000         c3     23    ccc     C3   1000 -0.28250000  12.010000   ; qtot -0.434941
 1001         h1     23    ccc     H5   1001 0.15710000   1.008000   ; qtot -0.277841
 1002         c3     23    ccc     C4   1002 0.44180000  12.010000   ; qtot 0.163959
 1003         h1     23    ccc     H6   1003 0.15710000   1.008000   ; qtot 0.321059
 1004         h1     23    ccc     H7   1004 -0.03530000   1.008000   ; qtot 0.285759
 1005         h1     23    ccc     H8   1005 -0.03530000   1.008000   ; qtot 0.250459
 1006         n3     23    ccc     N2   1006 -0.74090000  14.010000   ; qtot -0.490441
 1007         c3     23    ccc     C5   1007 0.51680000  12.010000   ; qtot 0.026359
 1008         c3     23    ccc     C6   1008 0.51680000  12.010000   ; qtot 0.543159
 1009         h1     23    ccc     H9   1009 -0.05230000   1.008000   ; qtot 0.490859
 1010         c3     23    ccc     C7   1010 -0.60390000  12.010000   ; qtot -0.113041
 1011         h1     23    ccc    H10   1011 -0.05230000   1.008000   ; qtot -0.165341
 1012         hc     23    ccc    H11   1012 0.16730000   1.008000   ; qtot 0.001959
 1013         hc     23    ccc    H12   1013 0.16730000   1.008000   ; qtot 0.169259
 1014          c     23    ccc     C8   1014 0.72110000  12.010000   ; qtot 0.890359
 1015          o     23    ccc     O2   1015 -0.61950000  16.000000   ; qtot 0.270859
 1016         h1     23    ccc    H13   1016 -0.05230000   1.008000   ; qtot 0.218559
 1017         h1     23    ccc    H14   1017 -0.05230000   1.008000   ; qtot 0.166259
 1018         c3     23    ccc     C9   1018 -0.60390000  12.010000   ; qtot -0.437641
 1019         hc     23    ccc    H15   1019 0.16730000   1.008000   ; qtot -0.270341
 1020         hc     23    ccc    H16   1020 0.16730000   1.008000   ; qtot -0.103041
 1021          c     23    ccc    C10   1021 0.72110000  12.010000   ; qtot 0.618059
 1022          o     23    ccc     O4   1022 -0.61950000  16.000000   ; qtot -0.001441
 1023         c3     23    ccc    C11   1023 0.08518000  12.010000   ; qtot 0.083739
 1024         c3     23    ccc    C12   1024 0.07918000  12.010000   ; qtot 0.162919
 1025         h1     23    ccc    H17   1025 0.06978000   1.008000   ; qtot 0.232699
 1026         c3     23    ccc    C13   1026 0.07918000  12.010000   ; qtot 0.311879
 1027         c3     23    ccc    C14   1027 0.03578000  12.010000   ; qtot 0.347659
 1028         c3     23    ccc    C15   1028 0.33498000  12.010000   ; qtot 0.682639
 1029         h1     23    ccc    H18   1029 0.06178000   1.008000   ; qtot 0.744419
 1030         h1     23    ccc    H19   1030 0.11278000   1.008000   ; qtot 0.857199
 1031         h2     23    ccc    H20   1031 0.12178000   1.008000   ; qtot 0.978979
 1032         oh     23    ccc     O1   1032 -0.56972000  16.000000   ; qtot 0.409259
 1033         oh     23    ccc     O6   1033 -0.57772000  16.000000   ; qtot -0.168461
 1034         c3     23    ccc    C16   1034 0.14548000  12.010000   ; qtot -0.022981
 1035         ho     23    ccc    H21   1035 0.40508000   1.008000   ; qtot 0.382099
 1036         hn     23    ccc    H22   1036 0.31758000   1.008000   ; qtot 0.699679
 1037         h1     23    ccc    H23   1037 0.06278000   1.008000   ; qtot 0.762459
 1038         h1     23    ccc    H24   1038 0.06278000   1.008000   ; qtot 0.825239
 1039         oh     23    ccc     O7   1039 -0.59472000  16.000000   ; qtot 0.230519
 1040         ho     23    ccc    H25   1040 0.41908000   1.008000   ; qtot 0.649599
 1041         os     23    ccc     O8   1041 -0.44552000  16.000000   ; qtot 0.204079
 1042         ho     23    ccc    H26   1042 0.41908000   1.008000   ; qtot 0.623159
 1043         h1     23    ccc    H27   1043 0.08578000   1.008000   ; qtot 0.708939
 1044         oh     23    ccc     O9   1044 -0.58672000  16.000000   ; qtot 0.122219
 1045         ho     23    ccc    H28   1045 0.41908000   1.008000   ; qtot 0.541299
 1046         n3     23    ccc     N3   1046 -0.54282000  14.010000   ; qtot -0.001521
 1047         c3     23    ccc    C17   1047 0.08518000  12.010000   ; qtot 0.083659
 1048         c3     23    ccc    C18   1048 0.07918000  12.010000   ; qtot 0.162839
 1049         h1     23    ccc    H29   1049 0.06978000   1.008000   ; qtot 0.232619
 1050         c3     23    ccc    C19   1050 0.07918000  12.010000   ; qtot 0.311799
 1051         c3     23    ccc    C20   1051 0.03578000  12.010000   ; qtot 0.347579
 1052         c3     23    ccc    C21   1052 0.33498000  12.010000   ; qtot 0.682559
 1053         h1     23    ccc    H30   1053 0.06178000   1.008000   ; qtot 0.744339
 1054         h1     23    ccc    H31   1054 0.11278000   1.008000   ; qtot 0.857119
 1055         h2     23    ccc    H32   1055 0.12178000   1.008000   ; qtot 0.978899
 1056         oh     23    ccc    O10   1056 -0.56972000  16.000000   ; qtot 0.409179
 1057         oh     23    ccc    O11   1057 -0.57772000  16.000000   ; qtot -0.168541
 1058         c3     23    ccc    C22   1058 0.14548000  12.010000   ; qtot -0.023061
 1059         ho     23    ccc    H33   1059 0.40508000   1.008000   ; qtot 0.382019
 1060         hn     23    ccc    H34   1060 0.31758000   1.008000   ; qtot 0.699599
 1061         h1     23    ccc    H35   1061 0.06278000   1.008000   ; qtot 0.762379
 1062         h1     23    ccc    H36   1062 0.06278000   1.008000   ; qtot 0.825159
 1063         oh     23    ccc    O12   1063 -0.59472000  16.000000   ; qtot 0.230439
 1064         ho     23    ccc    H37   1064 0.41908000   1.008000   ; qtot 0.649519
 1065         os     23    ccc    O13   1065 -0.44552000  16.000000   ; qtot 0.203999
 1066         ho     23    ccc    H38   1066 0.41908000   1.008000   ; qtot 0.623079
 1067         h1     23    ccc    H39   1067 0.08578000   1.008000   ; qtot 0.708859
 1068         oh     23    ccc     O5   1068 -0.58672000  16.000000   ; qtot 0.122139
 1069         ho     23    ccc    H40   1069 0.41908000   1.008000   ; qtot 0.541219
 1070         n3     23    ccc     N4   1070 -0.54282000  14.010000   ; qtot -0.001601
; residue   24 ccc rtp ccc q -0.0
 1071          n     24    ccc     N1   1071 -0.46580000  14.010000   ; qtot -0.467401
 1072         hn     24    ccc     H4   1072 0.31480000   1.008000   ; qtot -0.152601
 1073         c3     24    ccc     C3   1073 -0.28250000  12.010000   ; qtot -0.435101
 1074         h1     24    ccc     H5   1074 0.15710000   1.008000   ; qtot -0.278001
 1075         c3     24    ccc     C4   1075 0.44180000  12.010000   ; qtot 0.163799
 1076         h1     24    ccc     H6   1076 0.15710000   1.008000   ; qtot 0.320899
 1077         h1     24    ccc     H7   1077 -0.03530000   1.008000   ; qtot 0.285599
 1078         h1     24    ccc     H8   1078 -0.03530000   1.008000   ; qtot 0.250299
 1079         n3     24    ccc     N2   1079 -0.74090000  14.010000   ; qtot -0.490601
 1080         c3     24    ccc     C5   1080 0.51680000  12.010000   ; qtot 0.026199
 1081         c3     24    ccc     C6   1081 0.51680000  12.010000   ; qtot 0.542999
 1082         h1     24    ccc     H9   1082 -0.05230000   1.008000   ; qtot 0.490699
 1083         c3     24    ccc     C7   1083 -0.60390000  12.010000   ; qtot -0.113201
 1084         h1     24    ccc    H10   1084 -0.05230000   1.008000   ; qtot -0.165501
 1085         hc     24    ccc    H11   1085 0.16730000   1.008000   ; qtot 0.001799
 1086         hc     24    ccc    H12   1086 0.16730000   1.008000   ; qtot 0.169099
 1087          c     24    ccc     C8   1087 0.72110000  12.010000   ; qtot 0.890199
 1088          o     24    ccc     O2   1088 -0.61950000  16.000000   ; qtot 0.270699
 1089         h1     24    ccc    H13   1089 -0.05230000   1.008000   ; qtot 0.218399
 1090         h1     24    ccc    H14   1090 -0.05230000   1.008000   ; qtot 0.166099
 1091         c3     24    ccc     C9   1091 -0.60390000  12.010000   ; qtot -0.437801
 1092         hc     24    ccc    H15   1092 0.16730000   1.008000   ; qtot -0.270501
 1093         hc     24    ccc    H16   1093 0.16730000   1.008000   ; qtot -0.103201
 1094          c     24    ccc    C10   1094 0.72110000  12.010000   ; qtot 0.617899
 1095          o     24    ccc     O4   1095 -0.61950000  16.000000   ; qtot -0.001601
 1096         c3     24    ccc    C11   1096 0.08518000  12.010000   ; qtot 0.083579
 1097         c3     24    ccc    C12   1097 0.07918000  12.010000   ; qtot 0.162759
 1098         h1     24    ccc    H17   1098 0.06978000   1.008000   ; qtot 0.232539
 1099         c3     24    ccc    C13   1099 0.07918000  12.010000   ; qtot 0.311719
 1100         c3     24    ccc    C14   1100 0.03578000  12.010000   ; qtot 0.347499
 1101         c3     24    ccc    C15   1101 0.33498000  12.010000   ; qtot 0.682479
 1102         h1     24    ccc    H18   1102 0.06178000   1.008000   ; qtot 0.744259
 1103         h1     24    ccc    H19   1103 0.11278000   1.008000   ; qtot 0.857039
 1104         h2     24    ccc    H20   1104 0.12178000   1.008000   ; qtot 0.978819
 1105         oh     24    ccc     O1   1105 -0.56972000  16.000000   ; qtot 0.409099
 1106         oh     24    ccc     O6   1106 -0.57772000  16.000000   ; qtot -0.168621
 1107         c3     24    ccc    C16   1107 0.14548000  12.010000   ; qtot -0.023141
 1108         ho     24    ccc    H21   1108 0.40508000   1.008000   ; qtot 0.381939
 1109         hn     24    ccc    H22   1109 0.31758000   1.008000   ; qtot 0.699519
 1110         h1     24    ccc    H23   1110 0.06278000   1.008000   ; qtot 0.762299
 1111         h1     24    ccc    H24   1111 0.06278000   1.008000   ; qtot 0.825079
 1112         oh     24    ccc     O7   1112 -0.59472000  16.000000   ; qtot 0.230359
 1113         ho     24    ccc    H25   1113 0.41908000   1.008000   ; qtot 0.649439
 1114         os     24    ccc     O8   1114 -0.44552000  16.000000   ; qtot 0.203919
 1115         ho     24    ccc    H26   1115 0.41908000   1.008000   ; qtot 0.622999
 1116         h1     24    ccc    H27   1116 0.08578000   1.008000   ; qtot 0.708779
 1117         oh     24    ccc     O9   1117 -0.58672000  16.000000   ; qtot 0.122059
 1118         ho     24    ccc    H28   1118 0.41908000   1.008000   ; qtot 0.541139
 1119         n3     24    ccc     N3   1119 -0.54282000  14.010000   ; qtot -0.001681
 1120         c3     24    ccc    C17   1120 0.08518000  12.010000   ; qtot 0.083499
 1121         c3     24    ccc    C18   1121 0.07918000  12.010000   ; qtot 0.162679
 1122         h1     24    ccc    H29   1122 0.06978000   1.008000   ; qtot 0.232459
 1123         c3     24    ccc    C19   1123 0.07918000  12.010000   ; qtot 0.311639
 1124         c3     24    ccc    C20   1124 0.03578000  12.010000   ; qtot 0.347419
 1125         c3     24    ccc    C21   1125 0.33498000  12.010000   ; qtot 0.682399
 1126         h1     24    ccc    H30   1126 0.06178000   1.008000   ; qtot 0.744179
 1127         h1     24    ccc    H31   1127 0.11278000   1.008000   ; qtot 0.856959
 1128         h2     24    ccc    H32   1128 0.12178000   1.008000   ; qtot 0.978739
 1129         oh     24    ccc    O10   1129 -0.56972000  16.000000   ; qtot 0.409019
 1130         oh     24    ccc    O11   1130 -0.57772000  16.000000   ; qtot -0.168701
 1131         c3     24    ccc    C22   1131 0.14548000  12.010000   ; qtot -0.023221
 1132         ho     24    ccc    H33   1132 0.40508000   1.008000   ; qtot 0.381859
 1133         hn     24    ccc    H34   1133 0.31758000   1.008000   ; qtot 0.699439
 1134         h1     24    ccc    H35   1134 0.06278000   1.008000   ; qtot 0.762219
 1135         h1     24    ccc    H36   1135 0.06278000   1.008000   ; qtot 0.824999
 1136         oh     24    ccc    O12   1136 -0.59472000  16.000000   ; qtot 0.230279
 1137         ho     24    ccc    H37   1137 0.41908000   1.008000   ; qtot 0.649359
 1138         os     24    ccc    O13   1138 -0.44552000  16.000000   ; qtot 0.203839
 1139         ho     24    ccc    H38   1139 0.41908000   1.008000   ; qtot 0.622919
 1140         h1     24    ccc    H39   1140 0.08578000   1.008000   ; qtot 0.708699
 1141         oh     24    ccc     O5   1141 -0.58672000  16.000000   ; qtot 0.121979
 1142         ho     24    ccc    H40   1142 0.41908000   1.008000   ; qtot 0.541059
 1143         n3     24    ccc     N4   1143 -0.54282000  14.010000   ; qtot -0.001761
; residue   25 ccc rtp ccc q -0.0
 1144          n     25    ccc     N1   1144 -0.46580000  14.010000   ; qtot -0.467561
 1145         hn     25    ccc     H4   1145 0.31480000   1.008000   ; qtot -0.152761
 1146         c3     25    ccc     C3   1146 -0.28250000  12.010000   ; qtot -0.435261
 1147         h1     25    ccc     H5   1147 0.15710000   1.008000   ; qtot -0.278161
 1148         c3     25    ccc     C4   1148 0.44180000  12.010000   ; qtot 0.163639
 1149         h1     25    ccc     H6   1149 0.15710000   1.008000   ; qtot 0.320739
 1150         h1     25    ccc     H7   1150 -0.03530000   1.008000   ; qtot 0.285439
 1151         h1     25    ccc     H8   1151 -0.03530000   1.008000   ; qtot 0.250139
 1152         n3     25    ccc     N2   1152 -0.74090000  14.010000   ; qtot -0.490761
 1153         c3     25    ccc     C5   1153 0.51680000  12.010000   ; qtot 0.026039
 1154         c3     25    ccc     C6   1154 0.51680000  12.010000   ; qtot 0.542839
 1155         h1     25    ccc     H9   1155 -0.05230000   1.008000   ; qtot 0.490539
 1156         c3     25    ccc     C7   1156 -0.60390000  12.010000   ; qtot -0.113361
 1157         h1     25    ccc    H10   1157 -0.05230000   1.008000   ; qtot -0.165661
 1158         hc     25    ccc    H11   1158 0.16730000   1.008000   ; qtot 0.001639
 1159         hc     25    ccc    H12   1159 0.16730000   1.008000   ; qtot 0.168939
 1160          c     25    ccc     C8   1160 0.72110000  12.010000   ; qtot 0.890039
 1161          o     25    ccc     O2   1161 -0.61950000  16.000000   ; qtot 0.270539
 1162         h1     25    ccc    H13   1162 -0.05230000   1.008000   ; qtot 0.218239
 1163         h1     25    ccc    H14   1163 -0.05230000   1.008000   ; qtot 0.165939
 1164         c3     25    ccc     C9   1164 -0.60390000  12.010000   ; qtot -0.437961
 1165         hc     25    ccc    H15   1165 0.16730000   1.008000   ; qtot -0.270661
 1166         hc     25    ccc    H16   1166 0.16730000   1.008000   ; qtot -0.103361
 1167          c     25    ccc    C10   1167 0.72110000  12.010000   ; qtot 0.617739
 1168          o     25    ccc     O4   1168 -0.61950000  16.000000   ; qtot -0.001761
 1169         c3     25    ccc    C11   1169 0.08518000  12.010000   ; qtot 0.083419
 1170         c3     25    ccc    C12   1170 0.07918000  12.010000   ; qtot 0.162599
 1171         h1     25    ccc    H17   1171 0.06978000   1.008000   ; qtot 0.232379
 1172         c3     25    ccc    C13   1172 0.07918000  12.010000   ; qtot 0.311559
 1173         c3     25    ccc    C14   1173 0.03578000  12.010000   ; qtot 0.347339
 1174         c3     25    ccc    C15   1174 0.33498000  12.010000   ; qtot 0.682319
 1175         h1     25    ccc    H18   1175 0.06178000   1.008000   ; qtot 0.744099
 1176         h1     25    ccc    H19   1176 0.11278000   1.008000   ; qtot 0.856879
 1177         h2     25    ccc    H20   1177 0.12178000   1.008000   ; qtot 0.978659
 1178         oh     25    ccc     O1   1178 -0.56972000  16.000000   ; qtot 0.408939
 1179         oh     25    ccc     O6   1179 -0.57772000  16.000000   ; qtot -0.168781
 1180         c3     25    ccc    C16   1180 0.14548000  12.010000   ; qtot -0.023301
 1181         ho     25    ccc    H21   1181 0.40508000   1.008000   ; qtot 0.381779
 1182         hn     25    ccc    H22   1182 0.31758000   1.008000   ; qtot 0.699359
 1183         h1     25    ccc    H23   1183 0.06278000   1.008000   ; qtot 0.762139
 1184         h1     25    ccc    H24   1184 0.06278000   1.008000   ; qtot 0.824919
 1185         oh     25    ccc     O7   1185 -0.59472000  16.000000   ; qtot 0.230199
 1186         ho     25    ccc    H25   1186 0.41908000   1.008000   ; qtot 0.649279
 1187         os     25    ccc     O8   1187 -0.44552000  16.000000   ; qtot 0.203759
 1188         ho     25    ccc    H26   1188 0.41908000   1.008000   ; qtot 0.622839
 1189         h1     25    ccc    H27   1189 0.08578000   1.008000   ; qtot 0.708619
 1190         oh     25    ccc     O9   1190 -0.58672000  16.000000   ; qtot 0.121899
 1191         ho     25    ccc    H28   1191 0.41908000   1.008000   ; qtot 0.540979
 1192         n3     25    ccc     N3   1192 -0.54282000  14.010000   ; qtot -0.001841
 1193         c3     25    ccc    C17   1193 0.08518000  12.010000   ; qtot 0.083339
 1194         c3     25    ccc    C18   1194 0.07918000  12.010000   ; qtot 0.162519
 1195         h1     25    ccc    H29   1195 0.06978000   1.008000   ; qtot 0.232299
 1196         c3     25    ccc    C19   1196 0.07918000  12.010000   ; qtot 0.311479
 1197         c3     25    ccc    C20   1197 0.03578000  12.010000   ; qtot 0.347259
 1198         c3     25    ccc    C21   1198 0.33498000  12.010000   ; qtot 0.682239
 1199         h1     25    ccc    H30   1199 0.06178000   1.008000   ; qtot 0.744019
 1200         h1     25    ccc    H31   1200 0.11278000   1.008000   ; qtot 0.856799
 1201         h2     25    ccc    H32   1201 0.12178000   1.008000   ; qtot 0.978579
 1202         oh     25    ccc    O10   1202 -0.56972000  16.000000   ; qtot 0.408859
 1203         oh     25    ccc    O11   1203 -0.57772000  16.000000   ; qtot -0.168861
 1204         c3     25    ccc    C22   1204 0.14548000  12.010000   ; qtot -0.023381
 1205         ho     25    ccc    H33   1205 0.40508000   1.008000   ; qtot 0.381699
 1206         hn     25    ccc    H34   1206 0.31758000   1.008000   ; qtot 0.699279
 1207         h1     25    ccc    H35   1207 0.06278000   1.008000   ; qtot 0.762059
 1208         h1     25    ccc    H36   1208 0.06278000   1.008000   ; qtot 0.824839
 1209         oh     25    ccc    O12   1209 -0.59472000  16.000000   ; qtot 0.230119
 1210         ho     25    ccc    H37   1210 0.41908000   1.008000   ; qtot 0.649199
 1211         os     25    ccc    O13   1211 -0.44552000  16.000000   ; qtot 0.203679
 1212         ho     25    ccc    H38   1212 0.41908000   1.008000   ; qtot 0.622759
 1213         h1     25    ccc    H39   1213 0.08578000   1.008000   ; qtot 0.708539
 1214         oh     25    ccc     O5   1214 -0.58672000  16.000000   ; qtot 0.121819
 1215         ho     25    ccc    H40   1215 0.41908000   1.008000   ; qtot 0.540899
 1216         n3     25    ccc     N4   1216 -0.54282000  14.010000   ; qtot -0.001921
; residue   26 ccc rtp ccc q -0.0
 1217          n     26    ccc     N1   1217 -0.46580000  14.010000   ; qtot -0.467721
 1218         hn     26    ccc     H4   1218 0.31480000   1.008000   ; qtot -0.152921
 1219         c3     26    ccc     C3   1219 -0.28250000  12.010000   ; qtot -0.435421
 1220         h1     26    ccc     H5   1220 0.15710000   1.008000   ; qtot -0.278321
 1221         c3     26    ccc     C4   1221 0.44180000  12.010000   ; qtot 0.163479
 1222         h1     26    ccc     H6   1222 0.15710000   1.008000   ; qtot 0.320579
 1223         h1     26    ccc     H7   1223 -0.03530000   1.008000   ; qtot 0.285279
 1224         h1     26    ccc     H8   1224 -0.03530000   1.008000   ; qtot 0.249979
 1225         n3     26    ccc     N2   1225 -0.74090000  14.010000   ; qtot -0.490921
 1226         c3     26    ccc     C5   1226 0.51680000  12.010000   ; qtot 0.025879
 1227         c3     26    ccc     C6   1227 0.51680000  12.010000   ; qtot 0.542679
 1228         h1     26    ccc     H9   1228 -0.05230000   1.008000   ; qtot 0.490379
 1229         c3     26    ccc     C7   1229 -0.60390000  12.010000   ; qtot -0.113521
 1230         h1     26    ccc    H10   1230 -0.05230000   1.008000   ; qtot -0.165821
 1231         hc     26    ccc    H11   1231 0.16730000   1.008000   ; qtot 0.001479
 1232         hc     26    ccc    H12   1232 0.16730000   1.008000   ; qtot 0.168779
 1233          c     26    ccc     C8   1233 0.72110000  12.010000   ; qtot 0.889879
 1234          o     26    ccc     O2   1234 -0.61950000  16.000000   ; qtot 0.270379
 1235         h1     26    ccc    H13   1235 -0.05230000   1.008000   ; qtot 0.218079
 1236         h1     26    ccc    H14   1236 -0.05230000   1.008000   ; qtot 0.165779
 1237         c3     26    ccc     C9   1237 -0.60390000  12.010000   ; qtot -0.438121
 1238         hc     26    ccc    H15   1238 0.16730000   1.008000   ; qtot -0.270821
 1239         hc     26    ccc    H16   1239 0.16730000   1.008000   ; qtot -0.103521
 1240          c     26    ccc    C10   1240 0.72110000  12.010000   ; qtot 0.617579
 1241          o     26    ccc     O4   1241 -0.61950000  16.000000   ; qtot -0.001921
 1242         c3     26    ccc    C11   1242 0.08518000  12.010000   ; qtot 0.083259
 1243         c3     26    ccc    C12   1243 0.07918000  12.010000   ; qtot 0.162439
 1244         h1     26    ccc    H17   1244 0.06978000   1.008000   ; qtot 0.232219
 1245         c3     26    ccc    C13   1245 0.07918000  12.010000   ; qtot 0.311399
 1246         c3     26    ccc    C14   1246 0.03578000  12.010000   ; qtot 0.347179
 1247         c3     26    ccc    C15   1247 0.33498000  12.010000   ; qtot 0.682159
 1248         h1     26    ccc    H18   1248 0.06178000   1.008000   ; qtot 0.743939
 1249         h1     26    ccc    H19   1249 0.11278000   1.008000   ; qtot 0.856719
 1250         h2     26    ccc    H20   1250 0.12178000   1.008000   ; qtot 0.978499
 1251         oh     26    ccc     O1   1251 -0.56972000  16.000000   ; qtot 0.408779
 1252         oh     26    ccc     O6   1252 -0.57772000  16.000000   ; qtot -0.168941
 1253         c3     26    ccc    C16   1253 0.14548000  12.010000   ; qtot -0.023461
 1254         ho     26    ccc    H21   1254 0.40508000   1.008000   ; qtot 0.381619
 1255         hn     26    ccc    H22   1255 0.31758000   1.008000   ; qtot 0.699199
 1256         h1     26    ccc    H23   1256 0.06278000   1.008000   ; qtot 0.761979
 1257         h1     26    ccc    H24   1257 0.06278000   1.008000   ; qtot 0.824759
 1258         oh     26    ccc     O7   1258 -0.59472000  16.000000   ; qtot 0.230039
 1259         ho     26    ccc    H25   1259 0.41908000   1.008000   ; qtot 0.649119
 1260         os     26    ccc     O8   1260 -0.44552000  16.000000   ; qtot 0.203599
 1261         ho     26    ccc    H26   1261 0.41908000   1.008000   ; qtot 0.622679
 1262         h1     26    ccc    H27   1262 0.08578000   1.008000   ; qtot 0.708459
 1263         oh     26    ccc     O9   1263 -0.58672000  16.000000   ; qtot 0.121739
 1264         ho     26    ccc    H28   1264 0.41908000   1.008000   ; qtot 0.540819
 1265         n3     26    ccc     N3   1265 -0.54282000  14.010000   ; qtot -0.002001
 1266         c3     26    ccc    C17   1266 0.08518000  12.010000   ; qtot 0.083179
 1267         c3     26    ccc    C18   1267 0.07918000  12.010000   ; qtot 0.162359
 1268         h1     26    ccc    H29   1268 0.06978000   1.008000   ; qtot 0.232139
 1269         c3     26    ccc    C19   1269 0.07918000  12.010000   ; qtot 0.311319
 1270         c3     26    ccc    C20   1270 0.03578000  12.010000   ; qtot 0.347099
 1271         c3     26    ccc    C21   1271 0.33498000  12.010000   ; qtot 0.682079
 1272         h1     26    ccc    H30   1272 0.06178000   1.008000   ; qtot 0.743859
 1273         h1     26    ccc    H31   1273 0.11278000   1.008000   ; qtot 0.856639
 1274         h2     26    ccc    H32   1274 0.12178000   1.008000   ; qtot 0.978419
 1275         oh     26    ccc    O10   1275 -0.56972000  16.000000   ; qtot 0.408699
 1276         oh     26    ccc    O11   1276 -0.57772000  16.000000   ; qtot -0.169021
 1277         c3     26    ccc    C22   1277 0.14548000  12.010000   ; qtot -0.023541
 1278         ho     26    ccc    H33   1278 0.40508000   1.008000   ; qtot 0.381539
 1279         hn     26    ccc    H34   1279 0.31758000   1.008000   ; qtot 0.699119
 1280         h1     26    ccc    H35   1280 0.06278000   1.008000   ; qtot 0.761899
 1281         h1     26    ccc    H36   1281 0.06278000   1.008000   ; qtot 0.824679
 1282         oh     26    ccc    O12   1282 -0.59472000  16.000000   ; qtot 0.229959
 1283         ho     26    ccc    H37   1283 0.41908000   1.008000   ; qtot 0.649039
 1284         os     26    ccc    O13   1284 -0.44552000  16.000000   ; qtot 0.203519
 1285         ho     26    ccc    H38   1285 0.41908000   1.008000   ; qtot 0.622599
 1286         h1     26    ccc    H39   1286 0.08578000   1.008000   ; qtot 0.708379
 1287         oh     26    ccc     O5   1287 -0.58672000  16.000000   ; qtot 0.121659
 1288         ho     26    ccc    H40   1288 0.41908000   1.008000   ; qtot 0.540739
 1289         n3     26    ccc     N4   1289 -0.54282000  14.010000   ; qtot -0.002081
; residue   27 ccc rtp ccc q -0.0
 1290          n     27    ccc     N1   1290 -0.46580000  14.010000   ; qtot -0.467881
 1291         hn     27    ccc     H4   1291 0.31480000   1.008000   ; qtot -0.153081
 1292         c3     27    ccc     C3   1292 -0.28250000  12.010000   ; qtot -0.435581
 1293         h1     27    ccc     H5   1293 0.15710000   1.008000   ; qtot -0.278481
 1294         c3     27    ccc     C4   1294 0.44180000  12.010000   ; qtot 0.163319
 1295         h1     27    ccc     H6   1295 0.15710000   1.008000   ; qtot 0.320419
 1296         h1     27    ccc     H7   1296 -0.03530000   1.008000   ; qtot 0.285119
 1297         h1     27    ccc     H8   1297 -0.03530000   1.008000   ; qtot 0.249819
 1298         n3     27    ccc     N2   1298 -0.74090000  14.010000   ; qtot -0.491081
 1299         c3     27    ccc     C5   1299 0.51680000  12.010000   ; qtot 0.025719
 1300         c3     27    ccc     C6   1300 0.51680000  12.010000   ; qtot 0.542519
 1301         h1     27    ccc     H9   1301 -0.05230000   1.008000   ; qtot 0.490219
 1302         c3     27    ccc     C7   1302 -0.60390000  12.010000   ; qtot -0.113681
 1303         h1     27    ccc    H10   1303 -0.05230000   1.008000   ; qtot -0.165981
 1304         hc     27    ccc    H11   1304 0.16730000   1.008000   ; qtot 0.001319
 1305         hc     27    ccc    H12   1305 0.16730000   1.008000   ; qtot 0.168619
 1306          c     27    ccc     C8   1306 0.72110000  12.010000   ; qtot 0.889719
 1307          o     27    ccc     O2   1307 -0.61950000  16.000000   ; qtot 0.270219
 1308         h1     27    ccc    H13   1308 -0.05230000   1.008000   ; qtot 0.217919
 1309         h1     27    ccc    H14   1309 -0.05230000   1.008000   ; qtot 0.165619
 1310         c3     27    ccc     C9   1310 -0.60390000  12.010000   ; qtot -0.438281
 1311         hc     27    ccc    H15   1311 0.16730000   1.008000   ; qtot -0.270981
 1312         hc     27    ccc    H16   1312 0.16730000   1.008000   ; qtot -0.103681
 1313          c     27    ccc    C10   1313 0.72110000  12.010000   ; qtot 0.617419
 1314          o     27    ccc     O4   1314 -0.61950000  16.000000   ; qtot -0.002081
 1315         c3     27    ccc    C11   1315 0.08518000  12.010000   ; qtot 0.083099
 1316         c3     27    ccc    C12   1316 0.07918000  12.010000   ; qtot 0.162279
 1317         h1     27    ccc    H17   1317 0.06978000   1.008000   ; qtot 0.232059
 1318         c3     27    ccc    C13   1318 0.07918000  12.010000   ; qtot 0.311239
 1319         c3     27    ccc    C14   1319 0.03578000  12.010000   ; qtot 0.347019
 1320         c3     27    ccc    C15   1320 0.33498000  12.010000   ; qtot 0.681999
 1321         h1     27    ccc    H18   1321 0.06178000   1.008000   ; qtot 0.743779
 1322         h1     27    ccc    H19   1322 0.11278000   1.008000   ; qtot 0.856559
 1323         h2     27    ccc    H20   1323 0.12178000   1.008000   ; qtot 0.978339
 1324         oh     27    ccc     O1   1324 -0.56972000  16.000000   ; qtot 0.408619
 1325         oh     27    ccc     O6   1325 -0.57772000  16.000000   ; qtot -0.169101
 1326         c3     27    ccc    C16   1326 0.14548000  12.010000   ; qtot -0.023621
 1327         ho     27    ccc    H21   1327 0.40508000   1.008000   ; qtot 0.381459
 1328         hn     27    ccc    H22   1328 0.31758000   1.008000   ; qtot 0.699039
 1329         h1     27    ccc    H23   1329 0.06278000   1.008000   ; qtot 0.761819
 1330         h1     27    ccc    H24   1330 0.06278000   1.008000   ; qtot 0.824599
 1331         oh     27    ccc     O7   1331 -0.59472000  16.000000   ; qtot 0.229879
 1332         ho     27    ccc    H25   1332 0.41908000   1.008000   ; qtot 0.648959
 1333         os     27    ccc     O8   1333 -0.44552000  16.000000   ; qtot 0.203439
 1334         ho     27    ccc    H26   1334 0.41908000   1.008000   ; qtot 0.622519
 1335         h1     27    ccc    H27   1335 0.08578000   1.008000   ; qtot 0.708299
 1336         oh     27    ccc     O9   1336 -0.58672000  16.000000   ; qtot 0.121579
 1337         ho     27    ccc    H28   1337 0.41908000   1.008000   ; qtot 0.540659
 1338         n3     27    ccc     N3   1338 -0.54282000  14.010000   ; qtot -0.002161
 1339         c3     27    ccc    C17   1339 0.08518000  12.010000   ; qtot 0.083019
 1340         c3     27    ccc    C18   1340 0.07918000  12.010000   ; qtot 0.162199
 1341         h1     27    ccc    H29   1341 0.06978000   1.008000   ; qtot 0.231979
 1342         c3     27    ccc    C19   1342 0.07918000  12.010000   ; qtot 0.311159
 1343         c3     27    ccc    C20   1343 0.03578000  12.010000   ; qtot 0.346939
 1344         c3     27    ccc    C21   1344 0.33498000  12.010000   ; qtot 0.681919
 1345         h1     27    ccc    H30   1345 0.06178000   1.008000   ; qtot 0.743699
 1346         h1     27    ccc    H31   1346 0.11278000   1.008000   ; qtot 0.856479
 1347         h2     27    ccc    H32   1347 0.12178000   1.008000   ; qtot 0.978259
 1348         oh     27    ccc    O10   1348 -0.56972000  16.000000   ; qtot 0.408539
 1349         oh     27    ccc    O11   1349 -0.57772000  16.000000   ; qtot -0.169181
 1350         c3     27    ccc    C22   1350 0.14548000  12.010000   ; qtot -0.023701
 1351         ho     27    ccc    H33   1351 0.40508000   1.008000   ; qtot 0.381379
 1352         hn     27    ccc    H34   1352 0.31758000   1.008000   ; qtot 0.698959
 1353         h1     27    ccc    H35   1353 0.06278000   1.008000   ; qtot 0.761739
 1354         h1     27    ccc    H36   1354 0.06278000   1.008000   ; qtot 0.824519
 1355         oh     27    ccc    O12   1355 -0.59472000  16.000000   ; qtot 0.229799
 1356         ho     27    ccc    H37   1356 0.41908000   1.008000   ; qtot 0.648879
 1357         os     27    ccc    O13   1357 -0.44552000  16.000000   ; qtot 0.203359
 1358         ho     27    ccc    H38   1358 0.41908000   1.008000   ; qtot 0.622439
 1359         h1     27    ccc    H39   1359 0.08578000   1.008000   ; qtot 0.708219
 1360         oh     27    ccc     O5   1360 -0.58672000  16.000000   ; qtot 0.121499
 1361         ho     27    ccc    H40   1361 0.41908000   1.008000   ; qtot 0.540579
 1362         n3     27    ccc     N4   1362 -0.54282000  14.010000   ; qtot -0.002241
; residue   28 ccc rtp ccc q -0.0
 1363          n     28    ccc     N1   1363 -0.46580000  14.010000   ; qtot -0.468041
 1364         hn     28    ccc     H4   1364 0.31480000   1.008000   ; qtot -0.153241
 1365         c3     28    ccc     C3   1365 -0.28250000  12.010000   ; qtot -0.435741
 1366         h1     28    ccc     H5   1366 0.15710000   1.008000   ; qtot -0.278641
 1367         c3     28    ccc     C4   1367 0.44180000  12.010000   ; qtot 0.163159
 1368         h1     28    ccc     H6   1368 0.15710000   1.008000   ; qtot 0.320259
 1369         h1     28    ccc     H7   1369 -0.03530000   1.008000   ; qtot 0.284959
 1370         h1     28    ccc     H8   1370 -0.03530000   1.008000   ; qtot 0.249659
 1371         n3     28    ccc     N2   1371 -0.74090000  14.010000   ; qtot -0.491241
 1372         c3     28    ccc     C5   1372 0.51680000  12.010000   ; qtot 0.025559
 1373         c3     28    ccc     C6   1373 0.51680000  12.010000   ; qtot 0.542359
 1374         h1     28    ccc     H9   1374 -0.05230000   1.008000   ; qtot 0.490059
 1375         c3     28    ccc     C7   1375 -0.60390000  12.010000   ; qtot -0.113841
 1376         h1     28    ccc    H10   1376 -0.05230000   1.008000   ; qtot -0.166141
 1377         hc     28    ccc    H11   1377 0.16730000   1.008000   ; qtot 0.001159
 1378         hc     28    ccc    H12   1378 0.16730000   1.008000   ; qtot 0.168459
 1379          c     28    ccc     C8   1379 0.72110000  12.010000   ; qtot 0.889559
 1380          o     28    ccc     O2   1380 -0.61950000  16.000000   ; qtot 0.270059
 1381         h1     28    ccc    H13   1381 -0.05230000   1.008000   ; qtot 0.217759
 1382         h1     28    ccc    H14   1382 -0.05230000   1.008000   ; qtot 0.165459
 1383         c3     28    ccc     C9   1383 -0.60390000  12.010000   ; qtot -0.438441
 1384         hc     28    ccc    H15   1384 0.16730000   1.008000   ; qtot -0.271141
 1385         hc     28    ccc    H16   1385 0.16730000   1.008000   ; qtot -0.103841
 1386          c     28    ccc    C10   1386 0.72110000  12.010000   ; qtot 0.617259
 1387          o     28    ccc     O4   1387 -0.61950000  16.000000   ; qtot -0.002241
 1388         c3     28    ccc    C11   1388 0.08518000  12.010000   ; qtot 0.082939
 1389         c3     28    ccc    C12   1389 0.07918000  12.010000   ; qtot 0.162119
 1390         h1     28    ccc    H17   1390 0.06978000   1.008000   ; qtot 0.231899
 1391         c3     28    ccc    C13   1391 0.07918000  12.010000   ; qtot 0.311079
 1392         c3     28    ccc    C14   1392 0.03578000  12.010000   ; qtot 0.346859
 1393         c3     28    ccc    C15   1393 0.33498000  12.010000   ; qtot 0.681839
 1394         h1     28    ccc    H18   1394 0.06178000   1.008000   ; qtot 0.743619
 1395         h1     28    ccc    H19   1395 0.11278000   1.008000   ; qtot 0.856399
 1396         h2     28    ccc    H20   1396 0.12178000   1.008000   ; qtot 0.978179
 1397         oh     28    ccc     O1   1397 -0.56972000  16.000000   ; qtot 0.408459
 1398         oh     28    ccc     O6   1398 -0.57772000  16.000000   ; qtot -0.169261
 1399         c3     28    ccc    C16   1399 0.14548000  12.010000   ; qtot -0.023781
 1400         ho     28    ccc    H21   1400 0.40508000   1.008000   ; qtot 0.381299
 1401         hn     28    ccc    H22   1401 0.31758000   1.008000   ; qtot 0.698879
 1402         h1     28    ccc    H23   1402 0.06278000   1.008000   ; qtot 0.761659
 1403         h1     28    ccc    H24   1403 0.06278000   1.008000   ; qtot 0.824439
 1404         oh     28    ccc     O7   1404 -0.59472000  16.000000   ; qtot 0.229719
 1405         ho     28    ccc    H25   1405 0.41908000   1.008000   ; qtot 0.648799
 1406         os     28    ccc     O8   1406 -0.44552000  16.000000   ; qtot 0.203279
 1407         ho     28    ccc    H26   1407 0.41908000   1.008000   ; qtot 0.622359
 1408         h1     28    ccc    H27   1408 0.08578000   1.008000   ; qtot 0.708139
 1409         oh     28    ccc     O9   1409 -0.58672000  16.000000   ; qtot 0.121419
 1410         ho     28    ccc    H28   1410 0.41908000   1.008000   ; qtot 0.540499
 1411         n3     28    ccc     N3   1411 -0.54282000  14.010000   ; qtot -0.002321
 1412         c3     28    ccc    C17   1412 0.08518000  12.010000   ; qtot 0.082859
 1413         c3     28    ccc    C18   1413 0.07918000  12.010000   ; qtot 0.162039
 1414         h1     28    ccc    H29   1414 0.06978000   1.008000   ; qtot 0.231819
 1415         c3     28    ccc    C19   1415 0.07918000  12.010000   ; qtot 0.310999
 1416         c3     28    ccc    C20   1416 0.03578000  12.010000   ; qtot 0.346779
 1417         c3     28    ccc    C21   1417 0.33498000  12.010000   ; qtot 0.681759
 1418         h1     28    ccc    H30   1418 0.06178000   1.008000   ; qtot 0.743539
 1419         h1     28    ccc    H31   1419 0.11278000   1.008000   ; qtot 0.856319
 1420         h2     28    ccc    H32   1420 0.12178000   1.008000   ; qtot 0.978099
 1421         oh     28    ccc    O10   1421 -0.56972000  16.000000   ; qtot 0.408379
 1422         oh     28    ccc    O11   1422 -0.57772000  16.000000   ; qtot -0.169341
 1423         c3     28    ccc    C22   1423 0.14548000  12.010000   ; qtot -0.023861
 1424         ho     28    ccc    H33   1424 0.40508000   1.008000   ; qtot 0.381219
 1425         hn     28    ccc    H34   1425 0.31758000   1.008000   ; qtot 0.698799
 1426         h1     28    ccc    H35   1426 0.06278000   1.008000   ; qtot 0.761579
 1427         h1     28    ccc    H36   1427 0.06278000   1.008000   ; qtot 0.824359
 1428         oh     28    ccc    O12   1428 -0.59472000  16.000000   ; qtot 0.229639
 1429         ho     28    ccc    H37   1429 0.41908000   1.008000   ; qtot 0.648719
 1430         os     28    ccc    O13   1430 -0.44552000  16.000000   ; qtot 0.203199
 1431         ho     28    ccc    H38   1431 0.41908000   1.008000   ; qtot 0.622279
 1432         h1     28    ccc    H39   1432 0.08578000   1.008000   ; qtot 0.708059
 1433         oh     28    ccc     O5   1433 -0.58672000  16.000000   ; qtot 0.121339
 1434         ho     28    ccc    H40   1434 0.41908000   1.008000   ; qtot 0.540419
 1435         n3     28    ccc     N4   1435 -0.54282000  14.010000   ; qtot -0.002401
; residue   29 ccc rtp ccc q -0.0
 1436          n     29    ccc     N1   1436 -0.46580000  14.010000   ; qtot -0.468201
 1437         hn     29    ccc     H4   1437 0.31480000   1.008000   ; qtot -0.153401
 1438         c3     29    ccc     C3   1438 -0.28250000  12.010000   ; qtot -0.435901
 1439         h1     29    ccc     H5   1439 0.15710000   1.008000   ; qtot -0.278801
 1440         c3     29    ccc     C4   1440 0.44180000  12.010000   ; qtot 0.162999
 1441         h1     29    ccc     H6   1441 0.15710000   1.008000   ; qtot 0.320099
 1442         h1     29    ccc     H7   1442 -0.03530000   1.008000   ; qtot 0.284799
 1443         h1     29    ccc     H8   1443 -0.03530000   1.008000   ; qtot 0.249499
 1444         n3     29    ccc     N2   1444 -0.74090000  14.010000   ; qtot -0.491401
 1445         c3     29    ccc     C5   1445 0.51680000  12.010000   ; qtot 0.025399
 1446         c3     29    ccc     C6   1446 0.51680000  12.010000   ; qtot 0.542199
 1447         h1     29    ccc     H9   1447 -0.05230000   1.008000   ; qtot 0.489899
 1448         c3     29    ccc     C7   1448 -0.60390000  12.010000   ; qtot -0.114001
 1449         h1     29    ccc    H10   1449 -0.05230000   1.008000   ; qtot -0.166301
 1450         hc     29    ccc    H11   1450 0.16730000   1.008000   ; qtot 0.000999
 1451         hc     29    ccc    H12   1451 0.16730000   1.008000   ; qtot 0.168299
 1452          c     29    ccc     C8   1452 0.72110000  12.010000   ; qtot 0.889399
 1453          o     29    ccc     O2   1453 -0.61950000  16.000000   ; qtot 0.269899
 1454         h1     29    ccc    H13   1454 -0.05230000   1.008000   ; qtot 0.217599
 1455         h1     29    ccc    H14   1455 -0.05230000   1.008000   ; qtot 0.165299
 1456         c3     29    ccc     C9   1456 -0.60390000  12.010000   ; qtot -0.438601
 1457         hc     29    ccc    H15   1457 0.16730000   1.008000   ; qtot -0.271301
 1458         hc     29    ccc    H16   1458 0.16730000   1.008000   ; qtot -0.104001
 1459          c     29    ccc    C10   1459 0.72110000  12.010000   ; qtot 0.617099
 1460          o     29    ccc     O4   1460 -0.61950000  16.000000   ; qtot -0.002401
 1461         c3     29    ccc    C11   1461 0.08518000  12.010000   ; qtot 0.082779
 1462         c3     29    ccc    C12   1462 0.07918000  12.010000   ; qtot 0.161959
 1463         h1     29    ccc    H17   1463 0.06978000   1.008000   ; qtot 0.231739
 1464         c3     29    ccc    C13   1464 0.07918000  12.010000   ; qtot 0.310919
 1465         c3     29    ccc    C14   1465 0.03578000  12.010000   ; qtot 0.346699
 1466         c3     29    ccc    C15   1466 0.33498000  12.010000   ; qtot 0.681679
 1467         h1     29    ccc    H18   1467 0.06178000   1.008000   ; qtot 0.743459
 1468         h1     29    ccc    H19   1468 0.11278000   1.008000   ; qtot 0.856239
 1469         h2     29    ccc    H20   1469 0.12178000   1.008000   ; qtot 0.978019
 1470         oh     29    ccc     O1   1470 -0.56972000  16.000000   ; qtot 0.408299
 1471         oh     29    ccc     O6   1471 -0.57772000  16.000000   ; qtot -0.169421
 1472         c3     29    ccc    C16   1472 0.14548000  12.010000   ; qtot -0.023941
 1473         ho     29    ccc    H21   1473 0.40508000   1.008000   ; qtot 0.381139
 1474         hn     29    ccc    H22   1474 0.31758000   1.008000   ; qtot 0.698719
 1475         h1     29    ccc    H23   1475 0.06278000   1.008000   ; qtot 0.761499
 1476         h1     29    ccc    H24   1476 0.06278000   1.008000   ; qtot 0.824279
 1477         oh     29    ccc     O7   1477 -0.59472000  16.000000   ; qtot 0.229559
 1478         ho     29    ccc    H25   1478 0.41908000   1.008000   ; qtot 0.648639
 1479         os     29    ccc     O8   1479 -0.44552000  16.000000   ; qtot 0.203119
 1480         ho     29    ccc    H26   1480 0.41908000   1.008000   ; qtot 0.622199
 1481         h1     29    ccc    H27   1481 0.08578000   1.008000   ; qtot 0.707979
 1482         oh     29    ccc     O9   1482 -0.58672000  16.000000   ; qtot 0.121259
 1483         ho     29    ccc    H28   1483 0.41908000   1.008000   ; qtot 0.540339
 1484         n3     29    ccc     N3   1484 -0.54282000  14.010000   ; qtot -0.002481
 1485         c3     29    ccc    C17   1485 0.08518000  12.010000   ; qtot 0.082699
 1486         c3     29    ccc    C18   1486 0.07918000  12.010000   ; qtot 0.161879
 1487         h1     29    ccc    H29   1487 0.06978000   1.008000   ; qtot 0.231659
 1488         c3     29    ccc    C19   1488 0.07918000  12.010000   ; qtot 0.310839
 1489         c3     29    ccc    C20   1489 0.03578000  12.010000   ; qtot 0.346619
 1490         c3     29    ccc    C21   1490 0.33498000  12.010000   ; qtot 0.681599
 1491         h1     29    ccc    H30   1491 0.06178000   1.008000   ; qtot 0.743379
 1492         h1     29    ccc    H31   1492 0.11278000   1.008000   ; qtot 0.856159
 1493         h2     29    ccc    H32   1493 0.12178000   1.008000   ; qtot 0.977939
 1494         oh     29    ccc    O10   1494 -0.56972000  16.000000   ; qtot 0.408219
 1495         oh     29    ccc    O11   1495 -0.57772000  16.000000   ; qtot -0.169501
 1496         c3     29    ccc    C22   1496 0.14548000  12.010000   ; qtot -0.024021
 1497         ho     29    ccc    H33   1497 0.40508000   1.008000   ; qtot 0.381059
 1498         hn     29    ccc    H34   1498 0.31758000   1.008000   ; qtot 0.698639
 1499         h1     29    ccc    H35   1499 0.06278000   1.008000   ; qtot 0.761419
 1500         h1     29    ccc    H36   1500 0.06278000   1.008000   ; qtot 0.824199
 1501         oh     29    ccc    O12   1501 -0.59472000  16.000000   ; qtot 0.229479
 1502         ho     29    ccc    H37   1502 0.41908000   1.008000   ; qtot 0.648559
 1503         os     29    ccc    O13   1503 -0.44552000  16.000000   ; qtot 0.203039
 1504         ho     29    ccc    H38   1504 0.41908000   1.008000   ; qtot 0.622119
 1505         h1     29    ccc    H39   1505 0.08578000   1.008000   ; qtot 0.707899
 1506         oh     29    ccc     O5   1506 -0.58672000  16.000000   ; qtot 0.121179
 1507         ho     29    ccc    H40   1507 0.41908000   1.008000   ; qtot 0.540259
 1508         n3     29    ccc     N4   1508 -0.54282000  14.010000   ; qtot -0.002561

[ bonds ]
;    ai     aj funct         c0         c1         c2         c3
      1      4     1   0.15375 251793.120000
      1      8     1   0.14647 272713.120000
      4      7     1   0.14647 272713.120000
      7     15     1   0.14647 272713.120000
      7     18     1   0.14647 272713.120000
      8      9     1   0.14647 272713.120000
      8     12     1   0.14647 272713.120000
      9     30     1   0.15375 251793.120000
     12     27     1   0.15375 251793.120000
     15     21     1   0.15375 251793.120000
     18     24     1   0.15375 251793.120000
     21     35     1   0.15241 261918.400000
     24     36     1   0.15241 261918.400000
     27     33     1   0.15241 261918.400000
     30     34     1   0.15241 261918.400000
     33     37     1   0.12183 533627.360000
     33     64     1   0.13789 357815.680000
     34     40     1   0.12183 533627.360000
     34     89     1   0.13789 357815.680000
     35     38     1   0.12183 533627.360000
     35    114     1   0.13789 357815.680000
     36     39     1   0.12183 533627.360000
     36    139     1   0.13789 357815.680000
     41     44     1   0.15375 251793.120000
     41     47     1   0.14647 272713.120000
     44     64     1   0.14619 275056.160000
     47     48     1   0.14647 272713.120000
     47     51     1   0.14647 272713.120000
     48     57     1   0.15375 251793.120000
     51     54     1   0.15375 251793.120000
     54     60     1   0.15241 261918.400000
     57     61     1   0.15241 261918.400000
     60     62     1   0.12183 533627.360000
     60    164     1   0.13789 357815.680000
     61     63     1   0.12183 533627.360000
     61    189     1   0.13789 357815.680000
     66     69     1   0.15375 251793.120000
     66     72     1   0.14647 272713.120000
     69     89     1   0.14619 275056.160000
     72     73     1   0.14647 272713.120000
     72     76     1   0.14647 272713.120000
     73     82     1   0.15375 251793.120000
     76     79     1   0.15375 251793.120000
     79     85     1   0.15241 261918.400000
     82     86     1   0.15241 261918.400000
     85     87     1   0.12183 533627.360000
     85    214     1   0.13789 357815.680000
     86     88     1   0.12183 533627.360000
     86    239     1   0.13789 357815.680000
     91     94     1   0.15375 251793.120000
     91     97     1   0.14647 272713.120000
     94    114     1   0.14619 275056.160000
     97     98     1   0.14647 272713.120000
     97    101     1   0.14647 272713.120000
     98    107     1   0.15375 251793.120000
    101    104     1   0.15375 251793.120000
    104    110     1   0.15241 261918.400000
    107    111     1   0.15241 261918.400000
    110    112     1   0.12183 533627.360000
    110    264     1   0.13789 357815.680000
    111    113     1   0.12183 533627.360000
    111    289     1   0.13789 357815.680000
    116    119     1   0.15375 251793.120000
    116    122     1   0.14647 272713.120000
    119    139     1   0.14619 275056.160000
    122    123     1   0.14647 272713.120000
    122    126     1   0.14647 272713.120000
    123    132     1   0.15375 251793.120000
    126    129     1   0.15375 251793.120000
    129    135     1   0.15241 261918.400000
    132    136     1   0.15241 261918.400000
    135    137     1   0.12183 533627.360000
    135    314     1   0.13789 357815.680000
    136    138     1   0.12183 533627.360000
    136    339     1   0.13789 357815.680000
    141    144     1   0.15375 251793.120000
    141    147     1   0.14647 272713.120000
    144    164     1   0.14619 275056.160000
    147    148     1   0.14647 272713.120000
    147    151     1   0.14647 272713.120000
    148    157     1   0.15375 251793.120000
    151    154     1   0.15375 251793.120000
    154    160     1   0.15241 261918.400000
    157    161     1   0.15241 261918.400000
    160    341     1   0.13789 357815.680000
    160    162     1   0.12183 533627.360000
    161    163     1   0.12183 533627.360000
    161    414     1   0.13789 357815.680000
    166    169     1   0.15375 251793.120000
    166    172     1   0.14647 272713.120000
    169    189     1   0.14619 275056.160000
    172    173     1   0.14647 272713.120000
    172    176     1   0.14647 272713.120000
    173    182     1   0.15375 251793.120000
    176    179     1   0.15375 251793.120000
    179    185     1   0.15241 261918.400000
    182    186     1   0.15241 261918.400000
    185    487     1   0.13789 357815.680000
    185    187     1   0.12183 533627.360000
    186    188     1   0.12183 533627.360000
    186    560     1   0.13789 357815.680000
    191    194     1   0.15375 251793.120000
    191    197     1   0.14647 272713.120000
    194    214     1   0.14619 275056.160000
    197    198     1   0.14647 272713.120000
    197    201     1   0.14647 272713.120000
    198    207     1   0.15375 251793.120000
    201    204     1   0.15375 251793.120000
    204    210     1   0.15241 261918.400000
    207    211     1   0.15241 261918.400000
    210    633     1   0.13789 357815.680000
    210    212     1   0.12183 533627.360000
    211    213     1   0.12183 533627.360000
    211    706     1   0.13789 357815.680000
    216    219     1   0.15375 251793.120000
    216    222     1   0.14647 272713.120000
    219    239     1   0.14619 275056.160000
    222    223     1   0.14647 272713.120000
    222    226     1   0.14647 272713.120000
    223    232     1   0.15375 251793.120000
    226    229     1   0.15375 251793.120000
    229    235     1   0.15241 261918.400000
    232    236     1   0.15241 261918.400000
    235    779     1   0.13789 357815.680000
    235    237     1   0.12183 533627.360000
    236    238     1   0.12183 533627.360000
    236    852     1   0.13789 357815.680000
    241    244     1   0.15375 251793.120000
    241    247     1   0.14647 272713.120000
    244    264     1   0.14619 275056.160000
    247    248     1   0.14647 272713.120000
    247    251     1   0.14647 272713.120000
    248    257     1   0.15375 251793.120000
    251    254     1   0.15375 251793.120000
    254    260     1   0.15241 261918.400000
    257    261     1   0.15241 261918.400000
    260    925     1   0.13789 357815.680000
    260    262     1   0.12183 533627.360000
    261    263     1   0.12183 533627.360000
    261    998     1   0.13789 357815.680000
    266    269     1   0.15375 251793.120000
    266    272     1   0.14647 272713.120000
    269    289     1   0.14619 275056.160000
    272    273     1   0.14647 272713.120000
    272    276     1   0.14647 272713.120000
    273    282     1   0.15375 251793.120000
    276    279     1   0.15375 251793.120000
    279    285     1   0.15241 261918.400000
    282    286     1   0.15241 261918.400000
    285   1071     1   0.13789 357815.680000
    285    287     1   0.12183 533627.360000
    286    288     1   0.12183 533627.360000
    286   1144     1   0.13789 357815.680000
    291    294     1   0.15375 251793.120000
    291    297     1   0.14647 272713.120000
    294    314     1   0.14619 275056.160000
    297    298     1   0.14647 272713.120000
    297    301     1   0.14647 272713.120000
    298    307     1   0.15375 251793.120000
    301    304     1   0.15375 251793.120000
    304    310     1   0.15241 261918.400000
    307    311     1   0.15241 261918.400000
    310   1217     1   0.13789 357815.680000
    310    312     1   0.12183 533627.360000
    311    313     1   0.12183 533627.360000
    311   1290     1   0.13789 357815.680000
    316    319     1   0.15375 251793.120000
    316    322     1   0.14647 272713.120000
    319    339     1   0.14619 275056.160000
    322    323     1   0.14647 272713.120000
    322    326     1   0.14647 272713.120000
    323    332     1   0.15375 251793.120000
    326    329     1   0.15375 251793.120000
    329    335     1   0.15241 261918.400000
    332    336     1   0.15241 261918.400000
    335   1363     1   0.13789 357815.680000
    335    337     1   0.12183 533627.360000
    336   1436     1   0.13789 357815.680000
    336    338     1   0.12183 533627.360000
    341    343     1   0.14619 275056.160000
    343    345     1   0.15375 251793.120000
    345    349     1   0.14647 272713.120000
    349    350     1   0.14647 272713.120000
    349    351     1   0.14647 272713.120000
    350    361     1   0.15375 251793.120000
    351    353     1   0.15375 251793.120000
    353    357     1   0.15241 261918.400000
    357    358     1   0.12183 533627.360000
    357    389     1   0.13400 406935.840000
    361    364     1   0.15241 261918.400000
    364    365     1   0.12183 533627.360000
    364    413     1   0.13400 406935.840000
    366    367     1   0.15375 251793.120000
    366    377     1   0.15375 251793.120000
    366    384     1   0.14316 258236.480000
    367    369     1   0.15375 251793.120000
    367    387     1   0.14233 265014.560000
    369    370     1   0.15375 251793.120000
    369    376     1   0.14233 265014.560000
    370    371     1   0.15375 251793.120000
    370    389     1   0.14647 272713.120000
    371    375     1   0.14233 265014.560000
    371    384     1   0.14316 258236.480000
    377    382     1   0.14233 265014.560000
    390    391     1   0.15375 251793.120000
    390    401     1   0.15375 251793.120000
    390    408     1   0.14316 258236.480000
    391    393     1   0.15375 251793.120000
    391    411     1   0.14233 265014.560000
    393    394     1   0.15375 251793.120000
    393    400     1   0.14233 265014.560000
    394    395     1   0.15375 251793.120000
    394    413     1   0.14647 272713.120000
    395    399     1   0.14233 265014.560000
    395    408     1   0.14316 258236.480000
    401    406     1   0.14233 265014.560000
    414    416     1   0.14619 275056.160000
    416    418     1   0.15375 251793.120000
    418    422     1   0.14647 272713.120000
    422    423     1   0.14647 272713.120000
    422    424     1   0.14647 272713.120000
    423    434     1   0.15375 251793.120000
    424    426     1   0.15375 251793.120000
    426    430     1   0.15241 261918.400000
    430    431     1   0.12183 533627.360000
    430    462     1   0.13400 406935.840000
    434    437     1   0.15241 261918.400000
    437    438     1   0.12183 533627.360000
    437    486     1   0.13400 406935.840000
    439    440     1   0.15375 251793.120000
    439    450     1   0.15375 251793.120000
    439    457     1   0.14316 258236.480000
    440    442     1   0.15375 251793.120000
    440    460     1   0.14233 265014.560000
    442    443     1   0.15375 251793.120000
    442    449     1   0.14233 265014.560000
    443    444     1   0.15375 251793.120000
    443    462     1   0.14647 272713.120000
    444    448     1   0.14233 265014.560000
    444    457     1   0.14316 258236.480000
    450    455     1   0.14233 265014.560000
    463    464     1   0.15375 251793.120000
    463    474     1   0.15375 251793.120000
    463    481     1   0.14316 258236.480000
    464    466     1   0.15375 251793.120000
    464    484     1   0.14233 265014.560000
    466    467     1   0.15375 251793.120000
    466    473     1   0.14233 265014.560000
    467    468     1   0.15375 251793.120000
    467    486     1   0.14647 272713.120000
    468    472     1   0.14233 265014.560000
    468    481     1   0.14316 258236.480000
    474    479     1   0.14233 265014.560000
    487    489     1   0.14619 275056.160000
    489    491     1   0.15375 251793.120000
    491    495     1   0.14647 272713.120000
    495    496     1   0.14647 272713.120000
    495    497     1   0.14647 272713.120000
    496    507     1   0.15375 251793.120000
    497    499     1   0.15375 251793.120000
    499    503     1   0.15241 261918.400000
    503    504     1   0.12183 533627.360000
    503    535     1   0.13400 406935.840000
    507    510     1   0.15241 261918.400000
    510    511     1   0.12183 533627.360000
    510    559     1   0.13400 406935.840000
    512    513     1   0.15375 251793.120000
    512    523     1   0.15375 251793.120000
    512    530     1   0.14316 258236.480000
    513    515     1   0.15375 251793.120000
    513    533     1   0.14233 265014.560000
    515    516     1   0.15375 251793.120000
    515    522     1   0.14233 265014.560000
    516    517     1   0.15375 251793.120000
    516    535     1   0.14647 272713.120000
    517    521     1   0.14233 265014.560000
    517    530     1   0.14316 258236.480000
    523    528     1   0.14233 265014.560000
    536    537     1   0.15375 251793.120000
    536    547     1   0.15375 251793.120000
    536    554     1   0.14316 258236.480000
    537    539     1   0.15375 251793.120000
    537    557     1   0.14233 265014.560000
    539    540     1   0.15375 251793.120000
    539    546     1   0.14233 265014.560000
    540    541     1   0.15375 251793.120000
    540    559     1   0.14647 272713.120000
    541    545     1   0.14233 265014.560000
    541    554     1   0.14316 258236.480000
    547    552     1   0.14233 265014.560000
    560    562     1   0.14619 275056.160000
    562    564     1   0.15375 251793.120000
    564    568     1   0.14647 272713.120000
    568    569     1   0.14647 272713.120000
    568    570     1   0.14647 272713.120000
    569    580     1   0.15375 251793.120000
    570    572     1   0.15375 251793.120000
    572    576     1   0.15241 261918.400000
    576    577     1   0.12183 533627.360000
    576    608     1   0.13400 406935.840000
    580    583     1   0.15241 261918.400000
    583    584     1   0.12183 533627.360000
    583    632     1   0.13400 406935.840000
    585    586     1   0.15375 251793.120000
    585    596     1   0.15375 251793.120000
    585    603     1   0.14316 258236.480000
    586    588     1   0.15375 251793.120000
    586    606     1   0.14233 265014.560000
    588    589     1   0.15375 251793.120000
    588    595     1   0.14233 265014.560000
    589    590     1   0.15375 251793.120000
    589    608     1   0.14647 272713.120000
    590    594     1   0.14233 265014.560000
    590    603     1   0.14316 258236.480000
    596    601     1   0.14233 265014.560000
    609    610     1   0.15375 251793.120000
    609    620     1   0.15375 251793.120000
    609    627     1   0.14316 258236.480000
    610    612     1   0.15375 251793.120000
    610    630     1   0.14233 265014.560000
    612    613     1   0.15375 251793.120000
    612    619     1   0.14233 265014.560000
    613    614     1   0.15375 251793.120000
    613    632     1   0.14647 272713.120000
    614    618     1   0.14233 265014.560000
    614    627     1   0.14316 258236.480000
    620    625     1   0.14233 265014.560000
    633    635     1   0.14619 275056.160000
    635    637     1   0.15375 251793.120000
    637    641     1   0.14647 272713.120000
    641    642     1   0.14647 272713.120000
    641    643     1   0.14647 272713.120000
    642    653     1   0.15375 251793.120000
    643    645     1   0.15375 251793.120000
    645    649     1   0.15241 261918.400000
    649    650     1   0.12183 533627.360000
    649    681     1   0.13400 406935.840000
    653    656     1   0.15241 261918.400000
    656    657     1   0.12183 533627.360000
    656    705     1   0.13400 406935.840000
    658    659     1   0.15375 251793.120000
    658    669     1   0.15375 251793.120000
    658    676     1   0.14316 258236.480000
    659    661     1   0.15375 251793.120000
    659    679     1   0.14233 265014.560000
    661    662     1   0.15375 251793.120000
    661    668     1   0.14233 265014.560000
    662    663     1   0.15375 251793.120000
    662    681     1   0.14647 272713.120000
    663    667     1   0.14233 265014.560000
    663    676     1   0.14316 258236.480000
    669    674     1   0.14233 265014.560000
    682    683     1   0.15375 251793.120000
    682    693     1   0.15375 251793.120000
    682    700     1   0.14316 258236.480000
    683    685     1   0.15375 251793.120000
    683    703     1   0.14233 265014.560000
    685    686     1   0.15375 251793.120000
    685    692     1   0.14233 265014.560000
    686    687     1   0.15375 251793.120000
    686    705     1   0.14647 272713.120000
    687    691     1   0.14233 265014.560000
    687    700     1   0.14316 258236.480000
    693    698     1   0.14233 265014.560000
    706    708     1   0.14619 275056.160000
    708    710     1   0.15375 251793.120000
    710    714     1   0.14647 272713.120000
    714    715     1   0.14647 272713.120000
    714    716     1   0.14647 272713.120000
    715    726     1   0.15375 251793.120000
    716    718     1   0.15375 251793.120000
    718    722     1   0.15241 261918.400000
    722    723     1   0.12183 533627.360000
    722    754     1   0.13400 406935.840000
    726    729     1   0.15241 261918.400000
    729    730     1   0.12183 533627.360000
    729    778     1   0.13400 406935.840000
    731    732     1   0.15375 251793.120000
    731    742     1   0.15375 251793.120000
    731    749     1   0.14316 258236.480000
    732    734     1   0.15375 251793.120000
    732    752     1   0.14233 265014.560000
    734    735     1   0.15375 251793.120000
    734    741     1   0.14233 265014.560000
    735    736     1   0.15375 251793.120000
    735    754     1   0.14647 272713.120000
    736    740     1   0.14233 265014.560000
    736    749     1   0.14316 258236.480000
    742    747     1   0.14233 265014.560000
    755    756     1   0.15375 251793.120000
    755    766     1   0.15375 251793.120000
    755    773     1   0.14316 258236.480000
    756    758     1   0.15375 251793.120000
    756    776     1   0.14233 265014.560000
    758    759     1   0.15375 251793.120000
    758    765     1   0.14233 265014.560000
    759    760     1   0.15375 251793.120000
    759    778     1   0.14647 272713.120000
    760    764     1   0.14233 265014.560000
    760    773     1   0.14316 258236.480000
    766    771     1   0.14233 265014.560000
    779    781     1   0.14619 275056.160000
    781    783     1   0.15375 251793.120000
    783    787     1   0.14647 272713.120000
    787    788     1   0.14647 272713.120000
    787    789     1   0.14647 272713.120000
    788    799     1   0.15375 251793.120000
    789    791     1   0.15375 251793.120000
    791    795     1   0.15241 261918.400000
    795    796     1   0.12183 533627.360000
    795    827     1   0.13400 406935.840000
    799    802     1   0.15241 261918.400000
    802    803     1   0.12183 533627.360000
    802    851     1   0.13400 406935.840000
    804    805     1   0.15375 251793.120000
    804    815     1   0.15375 251793.120000
    804    822     1   0.14316 258236.480000
    805    807     1   0.15375 251793.120000
    805    825     1   0.14233 265014.560000
    807    808     1   0.15375 251793.120000
    807    814     1   0.14233 265014.560000
    808    809     1   0.15375 251793.120000
    808    827     1   0.14647 272713.120000
    809    813     1   0.14233 265014.560000
    809    822     1   0.14316 258236.480000
    815    820     1   0.14233 265014.560000
    828    829     1   0.15375 251793.120000
    828    839     1   0.15375 251793.120000
    828    846     1   0.14316 258236.480000
    829    831     1   0.15375 251793.120000
    829    849     1   0.14233 265014.560000
    831    832     1   0.15375 251793.120000
    831    838     1   0.14233 265014.560000
    832    833     1   0.15375 251793.120000
    832    851     1   0.14647 272713.120000
    833    837     1   0.14233 265014.560000
    833    846     1   0.14316 258236.480000
    839    844     1   0.14233 265014.560000
    852    854     1   0.14619 275056.160000
    854    856     1   0.15375 251793.120000
    856    860     1   0.14647 272713.120000
    860    861     1   0.14647 272713.120000
    860    862     1   0.14647 272713.120000
    861    872     1   0.15375 251793.120000
    862    864     1   0.15375 251793.120000
    864    868     1   0.15241 261918.400000
    868    869     1   0.12183 533627.360000
    868    900     1   0.13400 406935.840000
    872    875     1   0.15241 261918.400000
    875    876     1   0.12183 533627.360000
    875    924     1   0.13400 406935.840000
    877    878     1   0.15375 251793.120000
    877    888     1   0.15375 251793.120000
    877    895     1   0.14316 258236.480000
    878    880     1   0.15375 251793.120000
    878    898     1   0.14233 265014.560000
    880    881     1   0.15375 251793.120000
    880    887     1   0.14233 265014.560000
    881    882     1   0.15375 251793.120000
    881    900     1   0.14647 272713.120000
    882    886     1   0.14233 265014.560000
    882    895     1   0.14316 258236.480000
    888    893     1   0.14233 265014.560000
    901    902     1   0.15375 251793.120000
    901    912     1   0.15375 251793.120000
    901    919     1   0.14316 258236.480000
    902    904     1   0.15375 251793.120000
    902    922     1   0.14233 265014.560000
    904    905     1   0.15375 251793.120000
    904    911     1   0.14233 265014.560000
    905    906     1   0.15375 251793.120000
    905    924     1   0.14647 272713.120000
    906    910     1   0.14233 265014.560000
    906    919     1   0.14316 258236.480000
    912    917     1   0.14233 265014.560000
    925    927     1   0.14619 275056.160000
    927    929     1   0.15375 251793.120000
    929    933     1   0.14647 272713.120000
    933    934     1   0.14647 272713.120000
    933    935     1   0.14647 272713.120000
    934    945     1   0.15375 251793.120000
    935    937     1   0.15375 251793.120000
    937    941     1   0.15241 261918.400000
    941    942     1   0.12183 533627.360000
    941    973     1   0.13400 406935.840000
    945    948     1   0.15241 261918.400000
    948    949     1   0.12183 533627.360000
    948    997     1   0.13400 406935.840000
    950    951     1   0.15375 251793.120000
    950    961     1   0.15375 251793.120000
    950    968     1   0.14316 258236.480000
    951    953     1   0.15375 251793.120000
    951    971     1   0.14233 265014.560000
    953    954     1   0.15375 251793.120000
    953    960     1   0.14233 265014.560000
    954    955     1   0.15375 251793.120000
    954    973     1   0.14647 272713.120000
    955    959     1   0.14233 265014.560000
    955    968     1   0.14316 258236.480000
    961    966     1   0.14233 265014.560000
    974    975     1   0.15375 251793.120000
    974    985     1   0.15375 251793.120000
    974    992     1   0.14316 258236.480000
    975    977     1   0.15375 251793.120000
    975    995     1   0.14233 265014.560000
    977    978     1   0.15375 251793.120000
    977    984     1   0.14233 265014.560000
    978    979     1   0.15375 251793.120000
    978    997     1   0.14647 272713.120000
    979    983     1   0.14233 265014.560000
    979    992     1   0.14316 258236.480000
    985    990     1   0.14233 265014.560000
    998   1000     1   0.14619 275056.160000
   1000   1002     1   0.15375 251793.120000
   1002   1006     1   0.14647 272713.120000
   1006   1007     1   0.14647 272713.120000
   1006   1008     1   0.14647 272713.120000
   1007   1018     1   0.15375 251793.120000
   1008   1010     1   0.15375 251793.120000
   1010   1014     1   0.15241 261918.400000
   1014   1015     1   0.12183 533627.360000
   1014   1046     1   0.13400 406935.840000
   1018   1021     1   0.15241 261918.400000
   1021   1022     1   0.12183 533627.360000
   1021   1070     1   0.13400 406935.840000
   1023   1024     1   0.15375 251793.120000
   1023   1034     1   0.15375 251793.120000
   1023   1041     1   0.14316 258236.480000
   1024   1026     1   0.15375 251793.120000
   1024   1044     1   0.14233 265014.560000
   1026   1027     1   0.15375 251793.120000
   1026   1033     1   0.14233 265014.560000
   1027   1028     1   0.15375 251793.120000
   1027   1046     1   0.14647 272713.120000
   1028   1032     1   0.14233 265014.560000
   1028   1041     1   0.14316 258236.480000
   1034   1039     1   0.14233 265014.560000
   1047   1048     1   0.15375 251793.120000
   1047   1058     1   0.15375 251793.120000
   1047   1065     1   0.14316 258236.480000
   1048   1050     1   0.15375 251793.120000
   1048   1068     1   0.14233 265014.560000
   1050   1051     1   0.15375 251793.120000
   1050   1057     1   0.14233 265014.560000
   1051   1052     1   0.15375 251793.120000
   1051   1070     1   0.14647 272713.120000
   1052   1056     1   0.14233 265014.560000
   1052   1065     1   0.14316 258236.480000
   1058   1063     1   0.14233 265014.560000
   1071   1073     1   0.14619 275056.160000
   1073   1075     1   0.15375 251793.120000
   1075   1079     1   0.14647 272713.120000
   1079   1080     1   0.14647 272713.120000
   1079   1081     1   0.14647 272713.120000
   1080   1091     1   0.15375 251793.120000
   1081   1083     1   0.15375 251793.120000
   1083   1087     1   0.15241 261918.400000
   1087   1088     1   0.12183 533627.360000
   1087   1119     1   0.13400 406935.840000
   1091   1094     1   0.15241 261918.400000
   1094   1095     1   0.12183 533627.360000
   1094   1143     1   0.13400 406935.840000
   1096   1097     1   0.15375 251793.120000
   1096   1107     1   0.15375 251793.120000
   1096   1114     1   0.14316 258236.480000
   1097   1099     1   0.15375 251793.120000
   1097   1117     1   0.14233 265014.560000
   1099   1100     1   0.15375 251793.120000
   1099   1106     1   0.14233 265014.560000
   1100   1101     1   0.15375 251793.120000
   1100   1119     1   0.14647 272713.120000
   1101   1105     1   0.14233 265014.560000
   1101   1114     1   0.14316 258236.480000
   1107   1112     1   0.14233 265014.560000
   1120   1121     1   0.15375 251793.120000
   1120   1131     1   0.15375 251793.120000
   1120   1138     1   0.14316 258236.480000
   1121   1123     1   0.15375 251793.120000
   1121   1141     1   0.14233 265014.560000
   1123   1124     1   0.15375 251793.120000
   1123   1130     1   0.14233 265014.560000
   1124   1125     1   0.15375 251793.120000
   1124   1143     1   0.14647 272713.120000
   1125   1129     1   0.14233 265014.560000
   1125   1138     1   0.14316 258236.480000
   1131   1136     1   0.14233 265014.560000
   1144   1146     1   0.14619 275056.160000
   1146   1148     1   0.15375 251793.120000
   1148   1152     1   0.14647 272713.120000
   1152   1153     1   0.14647 272713.120000
   1152   1154     1   0.14647 272713.120000
   1153   1164     1   0.15375 251793.120000
   1154   1156     1   0.15375 251793.120000
   1156   1160     1   0.15241 261918.400000
   1160   1161     1   0.12183 533627.360000
   1160   1192     1   0.13400 406935.840000
   1164   1167     1   0.15241 261918.400000
   1167   1168     1   0.12183 533627.360000
   1167   1216     1   0.13400 406935.840000
   1169   1170     1   0.15375 251793.120000
   1169   1180     1   0.15375 251793.120000
   1169   1187     1   0.14316 258236.480000
   1170   1172     1   0.15375 251793.120000
   1170   1190     1   0.14233 265014.560000
   1172   1173     1   0.15375 251793.120000
   1172   1179     1   0.14233 265014.560000
   1173   1174     1   0.15375 251793.120000
   1173   1192     1   0.14647 272713.120000
   1174   1178     1   0.14233 265014.560000
   1174   1187     1   0.14316 258236.480000
   1180   1185     1   0.14233 265014.560000
   1193   1194     1   0.15375 251793.120000
   1193   1204     1   0.15375 251793.120000
   1193   1211     1   0.14316 258236.480000
   1194   1196     1   0.15375 251793.120000
   1194   1214     1   0.14233 265014.560000
   1196   1197     1   0.15375 251793.120000
   1196   1203     1   0.14233 265014.560000
   1197   1198     1   0.15375 251793.120000
   1197   1216     1   0.14647 272713.120000
   1198   1202     1   0.14233 265014.560000
   1198   1211     1   0.14316 258236.480000
   1204   1209     1   0.14233 265014.560000
   1217   1219     1   0.14619 275056.160000
   1219   1221     1   0.15375 251793.120000
   1221   1225     1   0.14647 272713.120000
   1225   1226     1   0.14647 272713.120000
   1225   1227     1   0.14647 272713.120000
   1226   1237     1   0.15375 251793.120000
   1227   1229     1   0.15375 251793.120000
   1229   1233     1   0.15241 261918.400000
   1233   1234     1   0.12183 533627.360000
   1233   1265     1   0.13400 406935.840000
   1237   1240     1   0.15241 261918.400000
   1240   1241     1   0.12183 533627.360000
   1240   1289     1   0.13400 406935.840000
   1242   1243     1   0.15375 251793.120000
   1242   1253     1   0.15375 251793.120000
   1242   1260     1   0.14316 258236.480000
   1243   1245     1   0.15375 251793.120000
   1243   1263     1   0.14233 265014.560000
   1245   1246     1   0.15375 251793.120000
   1245   1252     1   0.14233 265014.560000
   1246   1247     1   0.15375 251793.120000
   1246   1265     1   0.14647 272713.120000
   1247   1251     1   0.14233 265014.560000
   1247   1260     1   0.14316 258236.480000
   1253   1258     1   0.14233 265014.560000
   1266   1267     1   0.15375 251793.120000
   1266   1277     1   0.15375 251793.120000
   1266   1284     1   0.14316 258236.480000
   1267   1269     1   0.15375 251793.120000
   1267   1287     1   0.14233 265014.560000
   1269   1270     1   0.15375 251793.120000
   1269   1276     1   0.14233 265014.560000
   1270   1271     1   0.15375 251793.120000
   1270   1289     1   0.14647 272713.120000
   1271   1275     1   0.14233 265014.560000
   1271   1284     1   0.14316 258236.480000
   1277   1282     1   0.14233 265014.560000
   1290   1292     1   0.14619 275056.160000
   1292   1294     1   0.15375 251793.120000
   1294   1298     1   0.14647 272713.120000
   1298   1299     1   0.14647 272713.120000
   1298   1300     1   0.14647 272713.120000
   1299   1310     1   0.15375 251793.120000
   1300   1302     1   0.15375 251793.120000
   1302   1306     1   0.15241 261918.400000
   1306   1307     1   0.12183 533627.360000
   1306   1338     1   0.13400 406935.840000
   1310   1313     1   0.15241 261918.400000
   1313   1314     1   0.12183 533627.360000
   1313   1362     1   0.13400 406935.840000
   1315   1316     1   0.15375 251793.120000
   1315   1326     1   0.15375 251793.120000
   1315   1333     1   0.14316 258236.480000
   1316   1318     1   0.15375 251793.120000
   1316   1336     1   0.14233 265014.560000
   1318   1319     1   0.15375 251793.120000
   1318   1325     1   0.14233 265014.560000
   1319   1320     1   0.15375 251793.120000
   1319   1338     1   0.14647 272713.120000
   1320   1324     1   0.14233 265014.560000
   1320   1333     1   0.14316 258236.480000
   1326   1331     1   0.14233 265014.560000
   1339   1340     1   0.15375 251793.120000
   1339   1350     1   0.15375 251793.120000
   1339   1357     1   0.14316 258236.480000
   1340   1342     1   0.15375 251793.120000
   1340   1360     1   0.14233 265014.560000
   1342   1343     1   0.15375 251793.120000
   1342   1349     1   0.14233 265014.560000
   1343   1344     1   0.15375 251793.120000
   1343   1362     1   0.14647 272713.120000
   1344   1348     1   0.14233 265014.560000
   1344   1357     1   0.14316 258236.480000
   1350   1355     1   0.14233 265014.560000
   1363   1365     1   0.14619 275056.160000
   1365   1367     1   0.15375 251793.120000
   1367   1371     1   0.14647 272713.120000
   1371   1372     1   0.14647 272713.120000
   1371   1373     1   0.14647 272713.120000
   1372   1383     1   0.15375 251793.120000
   1373   1375     1   0.15375 251793.120000
   1375   1379     1   0.15241 261918.400000
   1379   1380     1   0.12183 533627.360000
   1379   1411     1   0.13400 406935.840000
   1383   1386     1   0.15241 261918.400000
   1386   1387     1   0.12183 533627.360000
   1386   1435     1   0.13400 406935.840000
   1388   1389     1   0.15375 251793.120000
   1388   1399     1   0.15375 251793.120000
   1388   1406     1   0.14316 258236.480000
   1389   1391     1   0.15375 251793.120000
   1389   1409     1   0.14233 265014.560000
   1391   1392     1   0.15375 251793.120000
   1391   1398     1   0.14233 265014.560000
   1392   1393     1   0.15375 251793.120000
   1392   1411     1   0.14647 272713.120000
   1393   1397     1   0.14233 265014.560000
   1393   1406     1   0.14316 258236.480000
   1399   1404     1   0.14233 265014.560000
   1412   1413     1   0.15375 251793.120000
   1412   1423     1   0.15375 251793.120000
   1412   1430     1   0.14316 258236.480000
   1413   1415     1   0.15375 251793.120000
   1413   1433     1   0.14233 265014.560000
   1415   1416     1   0.15375 251793.120000
   1415   1422     1   0.14233 265014.560000
   1416   1417     1   0.15375 251793.120000
   1416   1435     1   0.14647 272713.120000
   1417   1421     1   0.14233 265014.560000
   1417   1430     1   0.14316 258236.480000
   1423   1428     1   0.14233 265014.560000
   1436   1438     1   0.14619 275056.160000
   1438   1440     1   0.15375 251793.120000
   1440   1444     1   0.14647 272713.120000
   1444   1445     1   0.14647 272713.120000
   1444   1446     1   0.14647 272713.120000
   1445   1456     1   0.15375 251793.120000
   1446   1448     1   0.15375 251793.120000
   1448   1452     1   0.15241 261918.400000
   1452   1453     1   0.12183 533627.360000
   1452   1484     1   0.13400 406935.840000
   1456   1459     1   0.15241 261918.400000
   1459   1460     1   0.12183 533627.360000
   1459   1508     1   0.13400 406935.840000
   1461   1462     1   0.15375 251793.120000
   1461   1472     1   0.15375 251793.120000
   1461   1479     1   0.14316 258236.480000
   1462   1464     1   0.15375 251793.120000
   1462   1482     1   0.14233 265014.560000
   1464   1465     1   0.15375 251793.120000
   1464   1471     1   0.14233 265014.560000
   1465   1466     1   0.15375 251793.120000
   1465   1484     1   0.14647 272713.120000
   1466   1470     1   0.14233 265014.560000
   1466   1479     1   0.14316 258236.480000
   1472   1477     1   0.14233 265014.560000
   1485   1486     1   0.15375 251793.120000
   1485   1496     1   0.15375 251793.120000
   1485   1503     1   0.14316 258236.480000
   1486   1488     1   0.15375 251793.120000
   1486   1506     1   0.14233 265014.560000
   1488   1489     1   0.15375 251793.120000
   1488   1495     1   0.14233 265014.560000
   1489   1490     1   0.15375 251793.120000
   1489   1508     1   0.14647 272713.120000
   1490   1494     1   0.14233 265014.560000
   1490   1503     1   0.14316 258236.480000
   1496   1501     1   0.14233 265014.560000
      1      2     1   0.10969 276646.080000
      1      3     1   0.10969 276646.080000
      4      5     1   0.10969 276646.080000
      4      6     1   0.10969 276646.080000
      9     10     1   0.10969 276646.080000
      9     11     1   0.10969 276646.080000
     12     13     1   0.10969 276646.080000
     12     14     1   0.10969 276646.080000
     15     16     1   0.10969 276646.080000
     15     17     1   0.10969 276646.080000
     18     19     1   0.10969 276646.080000
     18     20     1   0.10969 276646.080000
     21     22     1   0.10969 276646.080000
     21     23     1   0.10969 276646.080000
     24     25     1   0.10969 276646.080000
     24     26     1   0.10969 276646.080000
     27     28     1   0.10969 276646.080000
     27     29     1   0.10969 276646.080000
     30     31     1   0.10969 276646.080000
     30     32     1   0.10969 276646.080000
     41     42     1   0.10969 276646.080000
     41     43     1   0.10969 276646.080000
     44     45     1   0.10969 276646.080000
     44     46     1   0.10969 276646.080000
     48     49     1   0.10969 276646.080000
     48     50     1   0.10969 276646.080000
     51     52     1   0.10969 276646.080000
     51     53     1   0.10969 276646.080000
     54     55     1   0.10969 276646.080000
     54     56     1   0.10969 276646.080000
     57     58     1   0.10969 276646.080000
     57     59     1   0.10969 276646.080000
     64     65     1   0.10129 337397.760000
     66     67     1   0.10969 276646.080000
     66     68     1   0.10969 276646.080000
     69     70     1   0.10969 276646.080000
     69     71     1   0.10969 276646.080000
     73     74     1   0.10969 276646.080000
     73     75     1   0.10969 276646.080000
     76     77     1   0.10969 276646.080000
     76     78     1   0.10969 276646.080000
     79     80     1   0.10969 276646.080000
     79     81     1   0.10969 276646.080000
     82     83     1   0.10969 276646.080000
     82     84     1   0.10969 276646.080000
     89     90     1   0.10129 337397.760000
     91     92     1   0.10969 276646.080000
     91     93     1   0.10969 276646.080000
     94     95     1   0.10969 276646.080000
     94     96     1   0.10969 276646.080000
     98     99     1   0.10969 276646.080000
     98    100     1   0.10969 276646.080000
    101    102     1   0.10969 276646.080000
    101    103     1   0.10969 276646.080000
    104    105     1   0.10969 276646.080000
    104    106     1   0.10969 276646.080000
    107    108     1   0.10969 276646.080000
    107    109     1   0.10969 276646.080000
    114    115     1   0.10129 337397.760000
    116    117     1   0.10969 276646.080000
    116    118     1   0.10969 276646.080000
    119    120     1   0.10969 276646.080000
    119    121     1   0.10969 276646.080000
    123    124     1   0.10969 276646.080000
    123    125     1   0.10969 276646.080000
    126    127     1   0.10969 276646.080000
    126    128     1   0.10969 276646.080000
    129    130     1   0.10969 276646.080000
    129    131     1   0.10969 276646.080000
    132    133     1   0.10969 276646.080000
    132    134     1   0.10969 276646.080000
    139    140     1   0.10129 337397.760000
    141    142     1   0.10969 276646.080000
    141    143     1   0.10969 276646.080000
    144    145     1   0.10969 276646.080000
    144    146     1   0.10969 276646.080000
    148    149     1   0.10969 276646.080000
    148    150     1   0.10969 276646.080000
    151    152     1   0.10969 276646.080000
    151    153     1   0.10969 276646.080000
    154    155     1   0.10969 276646.080000
    154    156     1   0.10969 276646.080000
    157    158     1   0.10969 276646.080000
    157    159     1   0.10969 276646.080000
    164    165     1   0.10129 337397.760000
    166    167     1   0.10969 276646.080000
    166    168     1   0.10969 276646.080000
    169    170     1   0.10969 276646.080000
    169    171     1   0.10969 276646.080000
    173    174     1   0.10969 276646.080000
    173    175     1   0.10969 276646.080000
    176    177     1   0.10969 276646.080000
    176    178     1   0.10969 276646.080000
    179    180     1   0.10969 276646.080000
    179    181     1   0.10969 276646.080000
    182    183     1   0.10969 276646.080000
    182    184     1   0.10969 276646.080000
    189    190     1   0.10129 337397.760000
    191    192     1   0.10969 276646.080000
    191    193     1   0.10969 276646.080000
    194    195     1   0.10969 276646.080000
    194    196     1   0.10969 276646.080000
    198    199     1   0.10969 276646.080000
    198    200     1   0.10969 276646.080000
    201    202     1   0.10969 276646.080000
    201    203     1   0.10969 276646.080000
    204    205     1   0.10969 276646.080000
    204    206     1   0.10969 276646.080000
    207    208     1   0.10969 276646.080000
    207    209     1   0.10969 276646.080000
    214    215     1   0.10129 337397.760000
    216    217     1   0.10969 276646.080000
    216    218     1   0.10969 276646.080000
    219    220     1   0.10969 276646.080000
    219    221     1   0.10969 276646.080000
    223    224     1   0.10969 276646.080000
    223    225     1   0.10969 276646.080000
    226    227     1   0.10969 276646.080000
    226    228     1   0.10969 276646.080000
    229    230     1   0.10969 276646.080000
    229    231     1   0.10969 276646.080000
    232    233     1   0.10969 276646.080000
    232    234     1   0.10969 276646.080000
    239    240     1   0.10129 337397.760000
    241    242     1   0.10969 276646.080000
    241    243     1   0.10969 276646.080000
    244    245     1   0.10969 276646.080000
    244    246     1   0.10969 276646.080000
    248    249     1   0.10969 276646.080000
    248    250     1   0.10969 276646.080000
    251    252     1   0.10969 276646.080000
    251    253     1   0.10969 276646.080000
    254    255     1   0.10969 276646.080000
    254    256     1   0.10969 276646.080000
    257    258     1   0.10969 276646.080000
    257    259     1   0.10969 276646.080000
    264    265     1   0.10129 337397.760000
    266    267     1   0.10969 276646.080000
    266    268     1   0.10969 276646.080000
    269    270     1   0.10969 276646.080000
    269    271     1   0.10969 276646.080000
    273    274     1   0.10969 276646.080000
    273    275     1   0.10969 276646.080000
    276    277     1   0.10969 276646.080000
    276    278     1   0.10969 276646.080000
    279    280     1   0.10969 276646.080000
    279    281     1   0.10969 276646.080000
    282    283     1   0.10969 276646.080000
    282    284     1   0.10969 276646.080000
    289    290     1   0.10129 337397.760000
    291    292     1   0.10969 276646.080000
    291    293     1   0.10969 276646.080000
    294    295     1   0.10969 276646.080000
    294    296     1   0.10969 276646.080000
    298    299     1   0.10969 276646.080000
    298    300     1   0.10969 276646.080000
    301    302     1   0.10969 276646.080000
    301    303     1   0.10969 276646.080000
    304    305     1   0.10969 276646.080000
    304    306     1   0.10969 276646.080000
    307    308     1   0.10969 276646.080000
    307    309     1   0.10969 276646.080000
    314    315     1   0.10129 337397.760000
    316    317     1   0.10969 276646.080000
    316    318     1   0.10969 276646.080000
    319    320     1   0.10969 276646.080000
    319    321     1   0.10969 276646.080000
    323    324     1   0.10969 276646.080000
    323    325     1   0.10969 276646.080000
    326    327     1   0.10969 276646.080000
    326    328     1   0.10969 276646.080000
    329    330     1   0.10969 276646.080000
    329    331     1   0.10969 276646.080000
    332    333     1   0.10969 276646.080000
    332    334     1   0.10969 276646.080000
    339    340     1   0.10129 337397.760000
    341    342     1   0.10129 337397.760000
    343    344     1   0.10969 276646.080000
    343    346     1   0.10969 276646.080000
    345    347     1   0.10969 276646.080000
    345    348     1   0.10969 276646.080000
    350    359     1   0.10969 276646.080000
    350    360     1   0.10969 276646.080000
    351    352     1   0.10969 276646.080000
    351    354     1   0.10969 276646.080000
    353    355     1   0.10969 276646.080000
    353    356     1   0.10969 276646.080000
    361    362     1   0.10969 276646.080000
    361    363     1   0.10969 276646.080000
    366    368     1   0.10969 276646.080000
    367    386     1   0.10969 276646.080000
    369    373     1   0.10969 276646.080000
    370    372     1   0.10969 276646.080000
    371    374     1   0.10961 277566.560000
    375    385     1   0.09730 310787.520000
    376    378     1   0.09730 310787.520000
    377    380     1   0.10969 276646.080000
    377    381     1   0.10969 276646.080000
    379    389     1   0.10190 328360.320000
    382    383     1   0.09730 310787.520000
    387    388     1   0.09730 310787.520000
    390    392     1   0.10969 276646.080000
    391    410     1   0.10969 276646.080000
    393    397     1   0.10969 276646.080000
    394    396     1   0.10969 276646.080000
    395    398     1   0.10961 277566.560000
    399    409     1   0.09730 310787.520000
    400    402     1   0.09730 310787.520000
    401    404     1   0.10969 276646.080000
    401    405     1   0.10969 276646.080000
    403    413     1   0.10190 328360.320000
    406    407     1   0.09730 310787.520000
    411    412     1   0.09730 310787.520000
    414    415     1   0.10129 337397.760000
    416    417     1   0.10969 276646.080000
    416    419     1   0.10969 276646.080000
    418    420     1   0.10969 276646.080000
    418    421     1   0.10969 276646.080000
    423    432     1   0.10969 276646.080000
    423    433     1   0.10969 276646.080000
    424    425     1   0.10969 276646.080000
    424    427     1   0.10969 276646.080000
    426    428     1   0.10969 276646.080000
    426    429     1   0.10969 276646.080000
    434    435     1   0.10969 276646.080000
    434    436     1   0.10969 276646.080000
    439    441     1   0.10969 276646.080000
    440    459     1   0.10969 276646.080000
    442    446     1   0.10969 276646.080000
    443    445     1   0.10969 276646.080000
    444    447     1   0.10961 277566.560000
    448    458     1   0.09730 310787.520000
    449    451     1   0.09730 310787.520000
    450    453     1   0.10969 276646.080000
    450    454     1   0.10969 276646.080000
    452    462     1   0.10190 328360.320000
    455    456     1   0.09730 310787.520000
    460    461     1   0.09730 310787.520000
    463    465     1   0.10969 276646.080000
    464    483     1   0.10969 276646.080000
    466    470     1   0.10969 276646.080000
    467    469     1   0.10969 276646.080000
    468    471     1   0.10961 277566.560000
    472    482     1   0.09730 310787.520000
    473    475     1   0.09730 310787.520000
    474    477     1   0.10969 276646.080000
    474    478     1   0.10969 276646.080000
    476    486     1   0.10190 328360.320000
    479    480     1   0.09730 310787.520000
    484    485     1   0.09730 310787.520000
    487    488     1   0.10129 337397.760000
    489    490     1   0.10969 276646.080000
    489    492     1   0.10969 276646.080000
    491    493     1   0.10969 276646.080000
    491    494     1   0.10969 276646.080000
    496    505     1   0.10969 276646.080000
    496    506     1   0.10969 276646.080000
    497    498     1   0.10969 276646.080000
    497    500     1   0.10969 276646.080000
    499    501     1   0.10969 276646.080000
    499    502     1   0.10969 276646.080000
    507    508     1   0.10969 276646.080000
    507    509     1   0.10969 276646.080000
    512    514     1   0.10969 276646.080000
    513    532     1   0.10969 276646.080000
    515    519     1   0.10969 276646.080000
    516    518     1   0.10969 276646.080000
    517    520     1   0.10961 277566.560000
    521    531     1   0.09730 310787.520000
    522    524     1   0.09730 310787.520000
    523    526     1   0.10969 276646.080000
    523    527     1   0.10969 276646.080000
    525    535     1   0.10190 328360.320000
    528    529     1   0.09730 310787.520000
    533    534     1   0.09730 310787.520000
    536    538     1   0.10969 276646.080000
    537    556     1   0.10969 276646.080000
    539    543     1   0.10969 276646.080000
    540    542     1   0.10969 276646.080000
    541    544     1   0.10961 277566.560000
    545    555     1   0.09730 310787.520000
    546    548     1   0.09730 310787.520000
    547    550     1   0.10969 276646.080000
    547    551     1   0.10969 276646.080000
    549    559     1   0.10190 328360.320000
    552    553     1   0.09730 310787.520000
    557    558     1   0.09730 310787.520000
    560    561     1   0.10129 337397.760000
    562    563     1   0.10969 276646.080000
    562    565     1   0.10969 276646.080000
    564    566     1   0.10969 276646.080000
    564    567     1   0.10969 276646.080000
    569    578     1   0.10969 276646.080000
    569    579     1   0.10969 276646.080000
    570    571     1   0.10969 276646.080000
    570    573     1   0.10969 276646.080000
    572    574     1   0.10969 276646.080000
    572    575     1   0.10969 276646.080000
    580    581     1   0.10969 276646.080000
    580    582     1   0.10969 276646.080000
    585    587     1   0.10969 276646.080000
    586    605     1   0.10969 276646.080000
    588    592     1   0.10969 276646.080000
    589    591     1   0.10969 276646.080000
    590    593     1   0.10961 277566.560000
    594    604     1   0.09730 310787.520000
    595    597     1   0.09730 310787.520000
    596    599     1   0.10969 276646.080000
    596    600     1   0.10969 276646.080000
    598    608     1   0.10190 328360.320000
    601    602     1   0.09730 310787.520000
    606    607     1   0.09730 310787.520000
    609    611     1   0.10969 276646.080000
    610    629     1   0.10969 276646.080000
    612    616     1   0.10969 276646.080000
    613    615     1   0.10969 276646.080000
    614    617     1   0.10961 277566.560000
    618    628     1   0.09730 310787.520000
    619    621     1   0.09730 310787.520000
    620    623     1   0.10969 276646.080000
    620    624     1   0.10969 276646.080000
    622    632     1   0.10190 328360.320000
    625    626     1   0.09730 310787.520000
    630    631     1   0.09730 310787.520000
    633    634     1   0.10129 337397.760000
    635    636     1   0.10969 276646.080000
    635    638     1   0.10969 276646.080000
    637    639     1   0.10969 276646.080000
    637    640     1   0.10969 276646.080000
    642    651     1   0.10969 276646.080000
    642    652     1   0.10969 276646.080000
    643    644     1   0.10969 276646.080000
    643    646     1   0.10969 276646.080000
    645    647     1   0.10969 276646.080000
    645    648     1   0.10969 276646.080000
    653    654     1   0.10969 276646.080000
    653    655     1   0.10969 276646.080000
    658    660     1   0.10969 276646.080000
    659    678     1   0.10969 276646.080000
    661    665     1   0.10969 276646.080000
    662    664     1   0.10969 276646.080000
    663    666     1   0.10961 277566.560000
    667    677     1   0.09730 310787.520000
    668    670     1   0.09730 310787.520000
    669    672     1   0.10969 276646.080000
    669    673     1   0.10969 276646.080000
    671    681     1   0.10190 328360.320000
    674    675     1   0.09730 310787.520000
    679    680     1   0.09730 310787.520000
    682    684     1   0.10969 276646.080000
    683    702     1   0.10969 276646.080000
    685    689     1   0.10969 276646.080000
    686    688     1   0.10969 276646.080000
    687    690     1   0.10961 277566.560000
    691    701     1   0.09730 310787.520000
    692    694     1   0.09730 310787.520000
    693    696     1   0.10969 276646.080000
    693    697     1   0.10969 276646.080000
    695    705     1   0.10190 328360.320000
    698    699     1   0.09730 310787.520000
    703    704     1   0.09730 310787.520000
    706    707     1   0.10129 337397.760000
    708    709     1   0.10969 276646.080000
    708    711     1   0.10969 276646.080000
    710    712     1   0.10969 276646.080000
    710    713     1   0.10969 276646.080000
    715    724     1   0.10969 276646.080000
    715    725     1   0.10969 276646.080000
    716    717     1   0.10969 276646.080000
    716    719     1   0.10969 276646.080000
    718    720     1   0.10969 276646.080000
    718    721     1   0.10969 276646.080000
    726    727     1   0.10969 276646.080000
    726    728     1   0.10969 276646.080000
    731    733     1   0.10969 276646.080000
    732    751     1   0.10969 276646.080000
    734    738     1   0.10969 276646.080000
    735    737     1   0.10969 276646.080000
    736    739     1   0.10961 277566.560000
    740    750     1   0.09730 310787.520000
    741    743     1   0.09730 310787.520000
    742    745     1   0.10969 276646.080000
    742    746     1   0.10969 276646.080000
    744    754     1   0.10190 328360.320000
    747    748     1   0.09730 310787.520000
    752    753     1   0.09730 310787.520000
    755    757     1   0.10969 276646.080000
    756    775     1   0.10969 276646.080000
    758    762     1   0.10969 276646.080000
    759    761     1   0.10969 276646.080000
    760    763     1   0.10961 277566.560000
    764    774     1   0.09730 310787.520000
    765    767     1   0.09730 310787.520000
    766    769     1   0.10969 276646.080000
    766    770     1   0.10969 276646.080000
    768    778     1   0.10190 328360.320000
    771    772     1   0.09730 310787.520000
    776    777     1   0.09730 310787.520000
    779    780     1   0.10129 337397.760000
    781    782     1   0.10969 276646.080000
    781    784     1   0.10969 276646.080000
    783    785     1   0.10969 276646.080000
    783    786     1   0.10969 276646.080000
    788    797     1   0.10969 276646.080000
    788    798     1   0.10969 276646.080000
    789    790     1   0.10969 276646.080000
    789    792     1   0.10969 276646.080000
    791    793     1   0.10969 276646.080000
    791    794     1   0.10969 276646.080000
    799    800     1   0.10969 276646.080000
    799    801     1   0.10969 276646.080000
    804    806     1   0.10969 276646.080000
    805    824     1   0.10969 276646.080000
    807    811     1   0.10969 276646.080000
    808    810     1   0.10969 276646.080000
    809    812     1   0.10961 277566.560000
    813    823     1   0.09730 310787.520000
    814    816     1   0.09730 310787.520000
    815    818     1   0.10969 276646.080000
    815    819     1   0.10969 276646.080000
    817    827     1   0.10190 328360.320000
    820    821     1   0.09730 310787.520000
    825    826     1   0.09730 310787.520000
    828    830     1   0.10969 276646.080000
    829    848     1   0.10969 276646.080000
    831    835     1   0.10969 276646.080000
    832    834     1   0.10969 276646.080000
    833    836     1   0.10961 277566.560000
    837    847     1   0.09730 310787.520000
    838    840     1   0.09730 310787.520000
    839    842     1   0.10969 276646.080000
    839    843     1   0.10969 276646.080000
    841    851     1   0.10190 328360.320000
    844    845     1   0.09730 310787.520000
    849    850     1   0.09730 310787.520000
    852    853     1   0.10129 337397.760000
    854    855     1   0.10969 276646.080000
    854    857     1   0.10969 276646.080000
    856    858     1   0.10969 276646.080000
    856    859     1   0.10969 276646.080000
    861    870     1   0.10969 276646.080000
    861    871     1   0.10969 276646.080000
    862    863     1   0.10969 276646.080000
    862    865     1   0.10969 276646.080000
    864    866     1   0.10969 276646.080000
    864    867     1   0.10969 276646.080000
    872    873     1   0.10969 276646.080000
    872    874     1   0.10969 276646.080000
    877    879     1   0.10969 276646.080000
    878    897     1   0.10969 276646.080000
    880    884     1   0.10969 276646.080000
    881    883     1   0.10969 276646.080000
    882    885     1   0.10961 277566.560000
    886    896     1   0.09730 310787.520000
    887    889     1   0.09730 310787.520000
    888    891     1   0.10969 276646.080000
    888    892     1   0.10969 276646.080000
    890    900     1   0.10190 328360.320000
    893    894     1   0.09730 310787.520000
    898    899     1   0.09730 310787.520000
    901    903     1   0.10969 276646.080000
    902    921     1   0.10969 276646.080000
    904    908     1   0.10969 276646.080000
    905    907     1   0.10969 276646.080000
    906    909     1   0.10961 277566.560000
    910    920     1   0.09730 310787.520000
    911    913     1   0.09730 310787.520000
    912    915     1   0.10969 276646.080000
    912    916     1   0.10969 276646.080000
    914    924     1   0.10190 328360.320000
    917    918     1   0.09730 310787.520000
    922    923     1   0.09730 310787.520000
    925    926     1   0.10129 337397.760000
    927    928     1   0.10969 276646.080000
    927    930     1   0.10969 276646.080000
    929    931     1   0.10969 276646.080000
    929    932     1   0.10969 276646.080000
    934    943     1   0.10969 276646.080000
    934    944     1   0.10969 276646.080000
    935    936     1   0.10969 276646.080000
    935    938     1   0.10969 276646.080000
    937    939     1   0.10969 276646.080000
    937    940     1   0.10969 276646.080000
    945    946     1   0.10969 276646.080000
    945    947     1   0.10969 276646.080000
    950    952     1   0.10969 276646.080000
    951    970     1   0.10969 276646.080000
    953    957     1   0.10969 276646.080000
    954    956     1   0.10969 276646.080000
    955    958     1   0.10961 277566.560000
    959    969     1   0.09730 310787.520000
    960    962     1   0.09730 310787.520000
    961    964     1   0.10969 276646.080000
    961    965     1   0.10969 276646.080000
    963    973     1   0.10190 328360.320000
    966    967     1   0.09730 310787.520000
    971    972     1   0.09730 310787.520000
    974    976     1   0.10969 276646.080000
    975    994     1   0.10969 276646.080000
    977    981     1   0.10969 276646.080000
    978    980     1   0.10969 276646.080000
    979    982     1   0.10961 277566.560000
    983    993     1   0.09730 310787.520000
    984    986     1   0.09730 310787.520000
    985    988     1   0.10969 276646.080000
    985    989     1   0.10969 276646.080000
    987    997     1   0.10190 328360.320000
    990    991     1   0.09730 310787.520000
    995    996     1   0.09730 310787.520000
    998    999     1   0.10129 337397.760000
   1000   1001     1   0.10969 276646.080000
   1000   1003     1   0.10969 276646.080000
   1002   1004     1   0.10969 276646.080000
   1002   1005     1   0.10969 276646.080000
   1007   1016     1   0.10969 276646.080000
   1007   1017     1   0.10969 276646.080000
   1008   1009     1   0.10969 276646.080000
   1008   1011     1   0.10969 276646.080000
   1010   1012     1   0.10969 276646.080000
   1010   1013     1   0.10969 276646.080000
   1018   1019     1   0.10969 276646.080000
   1018   1020     1   0.10969 276646.080000
   1023   1025     1   0.10969 276646.080000
   1024   1043     1   0.10969 276646.080000
   1026   1030     1   0.10969 276646.080000
   1027   1029     1   0.10969 276646.080000
   1028   1031     1   0.10961 277566.560000
   1032   1042     1   0.09730 310787.520000
   1033   1035     1   0.09730 310787.520000
   1034   1037     1   0.10969 276646.080000
   1034   1038     1   0.10969 276646.080000
   1036   1046     1   0.10190 328360.320000
   1039   1040     1   0.09730 310787.520000
   1044   1045     1   0.09730 310787.520000
   1047   1049     1   0.10969 276646.080000
   1048   1067     1   0.10969 276646.080000
   1050   1054     1   0.10969 276646.080000
   1051   1053     1   0.10969 276646.080000
   1052   1055     1   0.10961 277566.560000
   1056   1066     1   0.09730 310787.520000
   1057   1059     1   0.09730 310787.520000
   1058   1061     1   0.10969 276646.080000
   1058   1062     1   0.10969 276646.080000
   1060   1070     1   0.10190 328360.320000
   1063   1064     1   0.09730 310787.520000
   1068   1069     1   0.09730 310787.520000
   1071   1072     1   0.10129 337397.760000
   1073   1074     1   0.10969 276646.080000
   1073   1076     1   0.10969 276646.080000
   1075   1077     1   0.10969 276646.080000
   1075   1078     1   0.10969 276646.080000
   1080   1089     1   0.10969 276646.080000
   1080   1090     1   0.10969 276646.080000
   1081   1082     1   0.10969 276646.080000
   1081   1084     1   0.10969 276646.080000
   1083   1085     1   0.10969 276646.080000
   1083   1086     1   0.10969 276646.080000
   1091   1092     1   0.10969 276646.080000
   1091   1093     1   0.10969 276646.080000
   1096   1098     1   0.10969 276646.080000
   1097   1116     1   0.10969 276646.080000
   1099   1103     1   0.10969 276646.080000
   1100   1102     1   0.10969 276646.080000
   1101   1104     1   0.10961 277566.560000
   1105   1115     1   0.09730 310787.520000
   1106   1108     1   0.09730 310787.520000
   1107   1110     1   0.10969 276646.080000
   1107   1111     1   0.10969 276646.080000
   1109   1119     1   0.10190 328360.320000
   1112   1113     1   0.09730 310787.520000
   1117   1118     1   0.09730 310787.520000
   1120   1122     1   0.10969 276646.080000
   1121   1140     1   0.10969 276646.080000
   1123   1127     1   0.10969 276646.080000
   1124   1126     1   0.10969 276646.080000
   1125   1128     1   0.10961 277566.560000
   1129   1139     1   0.09730 310787.520000
   1130   1132     1   0.09730 310787.520000
   1131   1134     1   0.10969 276646.080000
   1131   1135     1   0.10969 276646.080000
   1133   1143     1   0.10190 328360.320000
   1136   1137     1   0.09730 310787.520000
   1141   1142     1   0.09730 310787.520000
   1144   1145     1   0.10129 337397.760000
   1146   1147     1   0.10969 276646.080000
   1146   1149     1   0.10969 276646.080000
   1148   1150     1   0.10969 276646.080000
   1148   1151     1   0.10969 276646.080000
   1153   1162     1   0.10969 276646.080000
   1153   1163     1   0.10969 276646.080000
   1154   1155     1   0.10969 276646.080000
   1154   1157     1   0.10969 276646.080000
   1156   1158     1   0.10969 276646.080000
   1156   1159     1   0.10969 276646.080000
   1164   1165     1   0.10969 276646.080000
   1164   1166     1   0.10969 276646.080000
   1169   1171     1   0.10969 276646.080000
   1170   1189     1   0.10969 276646.080000
   1172   1176     1   0.10969 276646.080000
   1173   1175     1   0.10969 276646.080000
   1174   1177     1   0.10961 277566.560000
   1178   1188     1   0.09730 310787.520000
   1179   1181     1   0.09730 310787.520000
   1180   1183     1   0.10969 276646.080000
   1180   1184     1   0.10969 276646.080000
   1182   1192     1   0.10190 328360.320000
   1185   1186     1   0.09730 310787.520000
   1190   1191     1   0.09730 310787.520000
   1193   1195     1   0.10969 276646.080000
   1194   1213     1   0.10969 276646.080000
   1196   1200     1   0.10969 276646.080000
   1197   1199     1   0.10969 276646.080000
   1198   1201     1   0.10961 277566.560000
   1202   1212     1   0.09730 310787.520000
   1203   1205     1   0.09730 310787.520000
   1204   1207     1   0.10969 276646.080000
   1204   1208     1   0.10969 276646.080000
   1206   1216     1   0.10190 328360.320000
   1209   1210     1   0.09730 310787.520000
   1214   1215     1   0.09730 310787.520000
   1217   1218     1   0.10129 337397.760000
   1219   1220     1   0.10969 276646.080000
   1219   1222     1   0.10969 276646.080000
   1221   1223     1   0.10969 276646.080000
   1221   1224     1   0.10969 276646.080000
   1226   1235     1   0.10969 276646.080000
   1226   1236     1   0.10969 276646.080000
   1227   1228     1   0.10969 276646.080000
   1227   1230     1   0.10969 276646.080000
   1229   1231     1   0.10969 276646.080000
   1229   1232     1   0.10969 276646.080000
   1237   1238     1   0.10969 276646.080000
   1237   1239     1   0.10969 276646.080000
   1242   1244     1   0.10969 276646.080000
   1243   1262     1   0.10969 276646.080000
   1245   1249     1   0.10969 276646.080000
   1246   1248     1   0.10969 276646.080000
   1247   1250     1   0.10961 277566.560000
   1251   1261     1   0.09730 310787.520000
   1252   1254     1   0.09730 310787.520000
   1253   1256     1   0.10969 276646.080000
   1253   1257     1   0.10969 276646.080000
   1255   1265     1   0.10190 328360.320000
   1258   1259     1   0.09730 310787.520000
   1263   1264     1   0.09730 310787.520000
   1266   1268     1   0.10969 276646.080000
   1267   1286     1   0.10969 276646.080000
   1269   1273     1   0.10969 276646.080000
   1270   1272     1   0.10969 276646.080000
   1271   1274     1   0.10961 277566.560000
   1275   1285     1   0.09730 310787.520000
   1276   1278     1   0.09730 310787.520000
   1277   1280     1   0.10969 276646.080000
   1277   1281     1   0.10969 276646.080000
   1279   1289     1   0.10190 328360.320000
   1282   1283     1   0.09730 310787.520000
   1287   1288     1   0.09730 310787.520000
   1290   1291     1   0.10129 337397.760000
   1292   1293     1   0.10969 276646.080000
   1292   1295     1   0.10969 276646.080000
   1294   1296     1   0.10969 276646.080000
   1294   1297     1   0.10969 276646.080000
   1299   1308     1   0.10969 276646.080000
   1299   1309     1   0.10969 276646.080000
   1300   1301     1   0.10969 276646.080000
   1300   1303     1   0.10969 276646.080000
   1302   1304     1   0.10969 276646.080000
   1302   1305     1   0.10969 276646.080000
   1310   1311     1   0.10969 276646.080000
   1310   1312     1   0.10969 276646.080000
   1315   1317     1   0.10969 276646.080000
   1316   1335     1   0.10969 276646.080000
   1318   1322     1   0.10969 276646.080000
   1319   1321     1   0.10969 276646.080000
   1320   1323     1   0.10961 277566.560000
   1324   1334     1   0.09730 310787.520000
   1325   1327     1   0.09730 310787.520000
   1326   1329     1   0.10969 276646.080000
   1326   1330     1   0.10969 276646.080000
   1328   1338     1   0.10190 328360.320000
   1331   1332     1   0.09730 310787.520000
   1336   1337     1   0.09730 310787.520000
   1339   1341     1   0.10969 276646.080000
   1340   1359     1   0.10969 276646.080000
   1342   1346     1   0.10969 276646.080000
   1343   1345     1   0.10969 276646.080000
   1344   1347     1   0.10961 277566.560000
   1348   1358     1   0.09730 310787.520000
   1349   1351     1   0.09730 310787.520000
   1350   1353     1   0.10969 276646.080000
   1350   1354     1   0.10969 276646.080000
   1352   1362     1   0.10190 328360.320000
   1355   1356     1   0.09730 310787.520000
   1360   1361     1   0.09730 310787.520000
   1363   1364     1   0.10129 337397.760000
   1365   1366     1   0.10969 276646.080000
   1365   1368     1   0.10969 276646.080000
   1367   1369     1   0.10969 276646.080000
   1367   1370     1   0.10969 276646.080000
   1372   1381     1   0.10969 276646.080000
   1372   1382     1   0.10969 276646.080000
   1373   1374     1   0.10969 276646.080000
   1373   1376     1   0.10969 276646.080000
   1375   1377     1   0.10969 276646.080000
   1375   1378     1   0.10969 276646.080000
   1383   1384     1   0.10969 276646.080000
   1383   1385     1   0.10969 276646.080000
   1388   1390     1   0.10969 276646.080000
   1389   1408     1   0.10969 276646.080000
   1391   1395     1   0.10969 276646.080000
   1392   1394     1   0.10969 276646.080000
   1393   1396     1   0.10961 277566.560000
   1397   1407     1   0.09730 310787.520000
   1398   1400     1   0.09730 310787.520000
   1399   1402     1   0.10969 276646.080000
   1399   1403     1   0.10969 276646.080000
   1401   1411     1   0.10190 328360.320000
   1404   1405     1   0.09730 310787.520000
   1409   1410     1   0.09730 310787.520000
   1412   1414     1   0.10969 276646.080000
   1413   1432     1   0.10969 276646.080000
   1415   1419     1   0.10969 276646.080000
   1416   1418     1   0.10969 276646.080000
   1417   1420     1   0.10961 277566.560000
   1421   1431     1   0.09730 310787.520000
   1422   1424     1   0.09730 310787.520000
   1423   1426     1   0.10969 276646.080000
   1423   1427     1   0.10969 276646.080000
   1425   1435     1   0.10190 328360.320000
   1428   1429     1   0.09730 310787.520000
   1433   1434     1   0.09730 310787.520000
   1436   1437     1   0.10129 337397.760000
   1438   1439     1   0.10969 276646.080000
   1438   1441     1   0.10969 276646.080000
   1440   1442     1   0.10969 276646.080000
   1440   1443     1   0.10969 276646.080000
   1445   1454     1   0.10969 276646.080000
   1445   1455     1   0.10969 276646.080000
   1446   1447     1   0.10969 276646.080000
   1446   1449     1   0.10969 276646.080000
   1448   1450     1   0.10969 276646.080000
   1448   1451     1   0.10969 276646.080000
   1456   1457     1   0.10969 276646.080000
   1456   1458     1   0.10969 276646.080000
   1461   1463     1   0.10969 276646.080000
   1462   1481     1   0.10969 276646.080000
   1464   1468     1   0.10969 276646.080000
   1465   1467     1   0.10969 276646.080000
   1466   1469     1   0.10961 277566.560000
   1470   1480     1   0.09730 310787.520000
   1471   1473     1   0.09730 310787.520000
   1472   1475     1   0.10969 276646.080000
   1472   1476     1   0.10969 276646.080000
   1474   1484     1   0.10190 328360.320000
   1477   1478     1   0.09730 310787.520000
   1482   1483     1   0.09730 310787.520000
   1485   1487     1   0.10969 276646.080000
   1486   1505     1   0.10969 276646.080000
   1488   1492     1   0.10969 276646.080000
   1489   1491     1   0.10969 276646.080000
   1490   1493     1   0.10961 277566.560000
   1494   1504     1   0.09730 310787.520000
   1495   1497     1   0.09730 310787.520000
   1496   1499     1   0.10969 276646.080000
   1496   1500     1   0.10969 276646.080000
   1498   1508     1   0.10190 328360.320000
   1501   1502     1   0.09730 310787.520000
   1506   1507     1   0.09730 310787.520000

[ pairs ]
;    ai     aj funct         c0         c1         c2         c3
      1     15     1
      1     18     1
      1     30     1
      1     27     1
      4      9     1
      4     12     1
      4     21     1
      4     24     1
      8      7     1
      7     35     1
      7     36     1
      8     34     1
      8     33     1
      9     27     1
      9     40     1
      9     89     1
     12     30     1
     12     37     1
     12     64     1
     15     24     1
     15     38     1
     15    114     1
     18     21     1
     18     39     1
     18    139     1
     21     94     1
     24    119     1
     27     44     1
     30     69     1
     33     41     1
     34     66     1
     35     91     1
     36    116     1
     37     44     1
     38     94     1
     39    119     1
     40     69     1
     41     57     1
     41     54     1
     44     48     1
     44     51     1
     47     64     1
     47     61     1
     47     60     1
     48     54     1
     48     63     1
     48    189     1
     51     57     1
     51     62     1
     51    164     1
     54    144     1
     57    169     1
     60    141     1
     61    166     1
     62    144     1
     63    169     1
     66     82     1
     66     79     1
     69     73     1
     69     76     1
     72     89     1
     72     86     1
     72     85     1
     73     79     1
     73     88     1
     73    239     1
     76     82     1
     76     87     1
     76    214     1
     79    194     1
     82    219     1
     85    191     1
     86    216     1
     87    194     1
     88    219     1
     91    107     1
     91    104     1
     94     98     1
     94    101     1
     97    114     1
     97    111     1
     97    110     1
     98    104     1
     98    113     1
     98    289     1
    101    107     1
    101    112     1
    101    264     1
    104    244     1
    107    269     1
    110    241     1
    111    266     1
    112    244     1
    113    269     1
    116    132     1
    116    129     1
    119    123     1
    119    126     1
    122    139     1
    122    136     1
    122    135     1
    123    129     1
    123    138     1
    123    339     1
    126    132     1
    126    137     1
    126    314     1
    129    294     1
    132    319     1
    135    291     1
    136    316     1
    137    294     1
    138    319     1
    141    157     1
    141    154     1
    144    148     1
    144    151     1
    147    164     1
    147    161     1
    147    160     1
    148    154     1
    148    163     1
    148    414     1
    151    157     1
    151    341     1
    151    162     1
    154    343     1
    157    416     1
    160    345     1
    161    418     1
    162    343     1
    163    416     1
    166    182     1
    166    179     1
    169    173     1
    169    176     1
    172    189     1
    172    186     1
    172    185     1
    173    179     1
    173    188     1
    173    560     1
    176    182     1
    176    487     1
    176    187     1
    179    489     1
    182    562     1
    185    491     1
    186    564     1
    187    489     1
    188    562     1
    191    207     1
    191    204     1
    194    198     1
    194    201     1
    197    214     1
    197    211     1
    197    210     1
    198    204     1
    198    213     1
    198    706     1
    201    207     1
    201    633     1
    201    212     1
    204    635     1
    207    708     1
    210    637     1
    211    710     1
    212    635     1
    213    708     1
    216    232     1
    216    229     1
    219    223     1
    219    226     1
    222    239     1
    222    236     1
    222    235     1
    223    229     1
    223    238     1
    223    852     1
    226    232     1
    226    779     1
    226    237     1
    229    781     1
    232    854     1
    235    783     1
    236    856     1
    237    781     1
    238    854     1
    241    257     1
    241    254     1
    244    248     1
    244    251     1
    247    264     1
    247    261     1
    247    260     1
    248    254     1
    248    263     1
    248    998     1
    251    257     1
    251    925     1
    251    262     1
    254    927     1
    257   1000     1
    260    929     1
    261   1002     1
    262    927     1
    263   1000     1
    266    282     1
    266    279     1
    269    273     1
    269    276     1
    272    289     1
    272    286     1
    272    285     1
    273    279     1
    273    288     1
    273   1144     1
    276    282     1
    276   1071     1
    276    287     1
    279   1073     1
    282   1146     1
    285   1075     1
    286   1148     1
    287   1073     1
    288   1146     1
    291    307     1
    291    304     1
    294    298     1
    294    301     1
    297    314     1
    297    311     1
    297    310     1
    298    304     1
    298    313     1
    298   1290     1
    301    307     1
    301   1217     1
    301    312     1
    304   1219     1
    307   1292     1
    310   1221     1
    311   1294     1
    312   1219     1
    313   1292     1
    316    332     1
    316    329     1
    319    323     1
    319    326     1
    322    339     1
    322    336     1
    322    335     1
    323    329     1
    323   1436     1
    323    338     1
    326    332     1
    326   1363     1
    326    337     1
    329   1365     1
    332   1438     1
    335   1367     1
    336   1440     1
    337   1365     1
    338   1438     1
    341    349     1
    343    350     1
    343    351     1
    345    361     1
    345    353     1
    349    364     1
    349    357     1
    350    353     1
    350    365     1
    350    413     1
    351    361     1
    351    358     1
    351    389     1
    353    370     1
    357    369     1
    357    371     1
    358    370     1
    361    394     1
    364    393     1
    364    395     1
    365    394     1
    366    370     1
    366    376     1
    366    375     1
    367    382     1
    367    371     1
    367    389     1
    369    377     1
    369    384     1
    369    375     1
    370    387     1
    371    376     1
    371    377     1
    375    389     1
    376    387     1
    376    389     1
    377    387     1
    382    384     1
    384    387     1
    384    389     1
    390    394     1
    390    400     1
    390    399     1
    391    406     1
    391    395     1
    391    413     1
    393    401     1
    393    408     1
    393    399     1
    394    411     1
    395    400     1
    395    401     1
    399    413     1
    400    411     1
    400    413     1
    401    411     1
    406    408     1
    408    411     1
    408    413     1
    414    422     1
    416    423     1
    416    424     1
    418    434     1
    418    426     1
    422    437     1
    422    430     1
    423    438     1
    423    486     1
    423    426     1
    424    431     1
    424    462     1
    424    434     1
    426    443     1
    430    444     1
    430    442     1
    431    443     1
    434    467     1
    437    468     1
    437    466     1
    438    467     1
    439    443     1
    439    449     1
    439    448     1
    440    444     1
    440    462     1
    440    455     1
    442    448     1
    442    457     1
    442    450     1
    443    460     1
    444    450     1
    444    449     1
    448    462     1
    449    462     1
    449    460     1
    450    460     1
    455    457     1
    457    462     1
    457    460     1
    463    467     1
    463    473     1
    463    472     1
    464    468     1
    464    486     1
    464    479     1
    466    472     1
    466    481     1
    466    474     1
    467    484     1
    468    474     1
    468    473     1
    472    486     1
    473    486     1
    473    484     1
    474    484     1
    479    481     1
    481    486     1
    481    484     1
    487    495     1
    489    496     1
    489    497     1
    491    507     1
    491    499     1
    495    510     1
    495    503     1
    496    499     1
    496    511     1
    496    559     1
    497    507     1
    497    504     1
    497    535     1
    499    516     1
    503    515     1
    503    517     1
    504    516     1
    507    540     1
    510    539     1
    510    541     1
    511    540     1
    512    516     1
    512    522     1
    512    521     1
    513    528     1
    513    517     1
    513    535     1
    515    523     1
    515    530     1
    515    521     1
    516    533     1
    517    522     1
    517    523     1
    521    535     1
    522    533     1
    522    535     1
    523    533     1
    528    530     1
    530    533     1
    530    535     1
    536    540     1
    536    546     1
    536    545     1
    537    552     1
    537    541     1
    537    559     1
    539    547     1
    539    554     1
    539    545     1
    540    557     1
    541    546     1
    541    547     1
    545    559     1
    546    557     1
    546    559     1
    547    557     1
    552    554     1
    554    557     1
    554    559     1
    560    568     1
    562    569     1
    562    570     1
    564    580     1
    564    572     1
    568    583     1
    568    576     1
    569    584     1
    569    632     1
    569    572     1
    570    577     1
    570    608     1
    570    580     1
    572    589     1
    576    590     1
    576    588     1
    577    589     1
    580    613     1
    583    614     1
    583    612     1
    584    613     1
    585    589     1
    585    595     1
    585    594     1
    586    590     1
    586    608     1
    586    601     1
    588    594     1
    588    603     1
    588    596     1
    589    606     1
    590    596     1
    590    595     1
    594    608     1
    595    608     1
    595    606     1
    596    606     1
    601    603     1
    603    608     1
    603    606     1
    609    613     1
    609    619     1
    609    618     1
    610    614     1
    610    632     1
    610    625     1
    612    618     1
    612    627     1
    612    620     1
    613    630     1
    614    620     1
    614    619     1
    618    632     1
    619    632     1
    619    630     1
    620    630     1
    625    627     1
    627    632     1
    627    630     1
    633    641     1
    635    642     1
    635    643     1
    637    653     1
    637    645     1
    641    656     1
    641    649     1
    642    645     1
    642    657     1
    642    705     1
    643    653     1
    643    650     1
    643    681     1
    645    662     1
    649    661     1
    649    663     1
    650    662     1
    653    686     1
    656    685     1
    656    687     1
    657    686     1
    658    662     1
    658    668     1
    658    667     1
    659    674     1
    659    663     1
    659    681     1
    661    669     1
    661    676     1
    661    667     1
    662    679     1
    663    668     1
    663    669     1
    667    681     1
    668    679     1
    668    681     1
    669    679     1
    674    676     1
    676    679     1
    676    681     1
    682    686     1
    682    692     1
    682    691     1
    683    698     1
    683    687     1
    683    705     1
    685    693     1
    685    700     1
    685    691     1
    686    703     1
    687    692     1
    687    693     1
    691    705     1
    692    703     1
    692    705     1
    693    703     1
    698    700     1
    700    703     1
    700    705     1
    706    714     1
    708    715     1
    708    716     1
    710    726     1
    710    718     1
    714    729     1
    714    722     1
    715    730     1
    715    778     1
    715    718     1
    716    723     1
    716    754     1
    716    726     1
    718    735     1
    722    736     1
    722    734     1
    723    735     1
    726    759     1
    729    760     1
    729    758     1
    730    759     1
    731    735     1
    731    741     1
    731    740     1
    732    736     1
    732    754     1
    732    747     1
    734    740     1
    734    749     1
    734    742     1
    735    752     1
    736    742     1
    736    741     1
    740    754     1
    741    754     1
    741    752     1
    742    752     1
    747    749     1
    749    754     1
    749    752     1
    755    759     1
    755    765     1
    755    764     1
    756    760     1
    756    778     1
    756    771     1
    758    764     1
    758    773     1
    758    766     1
    759    776     1
    760    766     1
    760    765     1
    764    778     1
    765    778     1
    765    776     1
    766    776     1
    771    773     1
    773    778     1
    773    776     1
    779    787     1
    781    788     1
    781    789     1
    783    799     1
    783    791     1
    787    802     1
    787    795     1
    788    791     1
    788    803     1
    788    851     1
    789    799     1
    789    796     1
    789    827     1
    791    808     1
    795    807     1
    795    809     1
    796    808     1
    799    832     1
    802    831     1
    802    833     1
    803    832     1
    804    808     1
    804    814     1
    804    813     1
    805    820     1
    805    809     1
    805    827     1
    807    815     1
    807    822     1
    807    813     1
    808    825     1
    809    814     1
    809    815     1
    813    827     1
    814    825     1
    814    827     1
    815    825     1
    820    822     1
    822    825     1
    822    827     1
    828    832     1
    828    838     1
    828    837     1
    829    844     1
    829    833     1
    829    851     1
    831    839     1
    831    846     1
    831    837     1
    832    849     1
    833    838     1
    833    839     1
    837    851     1
    838    849     1
    838    851     1
    839    849     1
    844    846     1
    846    849     1
    846    851     1
    852    860     1
    854    861     1
    854    862     1
    856    872     1
    856    864     1
    860    875     1
    860    868     1
    861    876     1
    861    924     1
    861    864     1
    862    869     1
    862    900     1
    862    872     1
    864    881     1
    868    882     1
    868    880     1
    869    881     1
    872    905     1
    875    906     1
    875    904     1
    876    905     1
    877    881     1
    877    887     1
    877    886     1
    878    882     1
    878    900     1
    878    893     1
    880    886     1
    880    895     1
    880    888     1
    881    898     1
    882    888     1
    882    887     1
    886    900     1
    887    900     1
    887    898     1
    888    898     1
    893    895     1
    895    900     1
    895    898     1
    901    905     1
    901    911     1
    901    910     1
    902    906     1
    902    924     1
    902    917     1
    904    910     1
    904    919     1
    904    912     1
    905    922     1
    906    912     1
    906    911     1
    910    924     1
    911    924     1
    911    922     1
    912    922     1
    917    919     1
    919    924     1
    919    922     1
    925    933     1
    927    934     1
    927    935     1
    929    945     1
    929    937     1
    933    948     1
    933    941     1
    934    937     1
    934    949     1
    934    997     1
    935    945     1
    935    942     1
    935    973     1
    937    954     1
    941    953     1
    941    955     1
    942    954     1
    945    978     1
    948    977     1
    948    979     1
    949    978     1
    950    954     1
    950    960     1
    950    959     1
    951    966     1
    951    955     1
    951    973     1
    953    961     1
    953    968     1
    953    959     1
    954    971     1
    955    960     1
    955    961     1
    959    973     1
    960    971     1
    960    973     1
    961    971     1
    966    968     1
    968    971     1
    968    973     1
    974    978     1
    974    984     1
    974    983     1
    975    990     1
    975    979     1
    975    997     1
    977    985     1
    977    992     1
    977    983     1
    978    995     1
    979    984     1
    979    985     1
    983    997     1
    984    995     1
    984    997     1
    985    995     1
    990    992     1
    992    995     1
    992    997     1
    998   1006     1
   1000   1007     1
   1000   1008     1
   1002   1018     1
   1002   1010     1
   1006   1021     1
   1006   1014     1
   1007   1022     1
   1007   1070     1
   1007   1010     1
   1008   1015     1
   1008   1046     1
   1008   1018     1
   1010   1027     1
   1014   1028     1
   1014   1026     1
   1015   1027     1
   1018   1051     1
   1021   1052     1
   1021   1050     1
   1022   1051     1
   1023   1027     1
   1023   1033     1
   1023   1032     1
   1024   1028     1
   1024   1046     1
   1024   1039     1
   1026   1032     1
   1026   1041     1
   1026   1034     1
   1027   1044     1
   1028   1034     1
   1028   1033     1
   1032   1046     1
   1033   1046     1
   1033   1044     1
   1034   1044     1
   1039   1041     1
   1041   1046     1
   1041   1044     1
   1047   1051     1
   1047   1057     1
   1047   1056     1
   1048   1052     1
   1048   1070     1
   1048   1063     1
   1050   1056     1
   1050   1065     1
   1050   1058     1
   1051   1068     1
   1052   1058     1
   1052   1057     1
   1056   1070     1
   1057   1070     1
   1057   1068     1
   1058   1068     1
   1063   1065     1
   1065   1070     1
   1065   1068     1
   1071   1079     1
   1073   1080     1
   1073   1081     1
   1075   1091     1
   1075   1083     1
   1079   1094     1
   1079   1087     1
   1080   1083     1
   1080   1095     1
   1080   1143     1
   1081   1091     1
   1081   1088     1
   1081   1119     1
   1083   1100     1
   1087   1099     1
   1087   1101     1
   1088   1100     1
   1091   1124     1
   1094   1123     1
   1094   1125     1
   1095   1124     1
   1096   1100     1
   1096   1106     1
   1096   1105     1
   1097   1112     1
   1097   1101     1
   1097   1119     1
   1099   1107     1
   1099   1114     1
   1099   1105     1
   1100   1117     1
   1101   1106     1
   1101   1107     1
   1105   1119     1
   1106   1117     1
   1106   1119     1
   1107   1117     1
   1112   1114     1
   1114   1117     1
   1114   1119     1
   1120   1124     1
   1120   1130     1
   1120   1129     1
   1121   1136     1
   1121   1125     1
   1121   1143     1
   1123   1131     1
   1123   1138     1
   1123   1129     1
   1124   1141     1
   1125   1130     1
   1125   1131     1
   1129   1143     1
   1130   1141     1
   1130   1143     1
   1131   1141     1
   1136   1138     1
   1138   1141     1
   1138   1143     1
   1144   1152     1
   1146   1153     1
   1146   1154     1
   1148   1164     1
   1148   1156     1
   1152   1167     1
   1152   1160     1
   1153   1168     1
   1153   1216     1
   1153   1156     1
   1154   1161     1
   1154   1192     1
   1154   1164     1
   1156   1173     1
   1160   1174     1
   1160   1172     1
   1161   1173     1
   1164   1197     1
   1167   1198     1
   1167   1196     1
   1168   1197     1
   1169   1173     1
   1169   1179     1
   1169   1178     1
   1170   1174     1
   1170   1192     1
   1170   1185     1
   1172   1178     1
   1172   1187     1
   1172   1180     1
   1173   1190     1
   1174   1180     1
   1174   1179     1
   1178   1192     1
   1179   1192     1
   1179   1190     1
   1180   1190     1
   1185   1187     1
   1187   1192     1
   1187   1190     1
   1193   1197     1
   1193   1203     1
   1193   1202     1
   1194   1198     1
   1194   1216     1
   1194   1209     1
   1196   1202     1
   1196   1211     1
   1196   1204     1
   1197   1214     1
   1198   1204     1
   1198   1203     1
   1202   1216     1
   1203   1216     1
   1203   1214     1
   1204   1214     1
   1209   1211     1
   1211   1216     1
   1211   1214     1
   1217   1225     1
   1219   1226     1
   1219   1227     1
   1221   1237     1
   1221   1229     1
   1225   1240     1
   1225   1233     1
   1226   1229     1
   1226   1241     1
   1226   1289     1
   1227   1237     1
   1227   1234     1
   1227   1265     1
   1229   1246     1
   1233   1245     1
   1233   1247     1
   1234   1246     1
   1237   1270     1
   1240   1269     1
   1240   1271     1
   1241   1270     1
   1242   1246     1
   1242   1252     1
   1242   1251     1
   1243   1258     1
   1243   1247     1
   1243   1265     1
   1245   1253     1
   1245   1260     1
   1245   1251     1
   1246   1263     1
   1247   1252     1
   1247   1253     1
   1251   1265     1
   1252   1263     1
   1252   1265     1
   1253   1263     1
   1258   1260     1
   1260   1263     1
   1260   1265     1
   1266   1270     1
   1266   1276     1
   1266   1275     1
   1267   1282     1
   1267   1271     1
   1267   1289     1
   1269   1277     1
   1269   1284     1
   1269   1275     1
   1270   1287     1
   1271   1276     1
   1271   1277     1
   1275   1289     1
   1276   1287     1
   1276   1289     1
   1277   1287     1
   1282   1284     1
   1284   1287     1
   1284   1289     1
   1290   1298     1
   1292   1299     1
   1292   1300     1
   1294   1310     1
   1294   1302     1
   1298   1313     1
   1298   1306     1
   1299   1314     1
   1299   1362     1
   1299   1302     1
   1300   1307     1
   1300   1338     1
   1300   1310     1
   1302   1319     1
   1306   1320     1
   1306   1318     1
   1307   1319     1
   1310   1343     1
   1313   1344     1
   1313   1342     1
   1314   1343     1
   1315   1319     1
   1315   1325     1
   1315   1324     1
   1316   1320     1
   1316   1338     1
   1316   1331     1
   1318   1324     1
   1318   1333     1
   1318   1326     1
   1319   1336     1
   1320   1326     1
   1320   1325     1
   1324   1338     1
   1325   1338     1
   1325   1336     1
   1326   1336     1
   1331   1333     1
   1333   1338     1
   1333   1336     1
   1339   1343     1
   1339   1349     1
   1339   1348     1
   1340   1344     1
   1340   1362     1
   1340   1355     1
   1342   1348     1
   1342   1357     1
   1342   1350     1
   1343   1360     1
   1344   1350     1
   1344   1349     1
   1348   1362     1
   1349   1362     1
   1349   1360     1
   1350   1360     1
   1355   1357     1
   1357   1362     1
   1357   1360     1
   1363   1371     1
   1365   1372     1
   1365   1373     1
   1367   1383     1
   1367   1375     1
   1371   1386     1
   1371   1379     1
   1372   1375     1
   1372   1387     1
   1372   1435     1
   1373   1383     1
   1373   1380     1
   1373   1411     1
   1375   1392     1
   1379   1391     1
   1379   1393     1
   1380   1392     1
   1383   1416     1
   1386   1415     1
   1386   1417     1
   1387   1416     1
   1388   1392     1
   1388   1398     1
   1388   1397     1
   1389   1404     1
   1389   1393     1
   1389   1411     1
   1391   1399     1
   1391   1406     1
   1391   1397     1
   1392   1409     1
   1393   1398     1
   1393   1399     1
   1397   1411     1
   1398   1409     1
   1398   1411     1
   1399   1409     1
   1404   1406     1
   1406   1409     1
   1406   1411     1
   1412   1416     1
   1412   1422     1
   1412   1421     1
   1413   1428     1
   1413   1417     1
   1413   1435     1
   1415   1423     1
   1415   1430     1
   1415   1421     1
   1416   1433     1
   1417   1422     1
   1417   1423     1
   1421   1435     1
   1422   1433     1
   1422   1435     1
   1423   1433     1
   1428   1430     1
   1430   1433     1
   1430   1435     1
   1436   1444     1
   1438   1445     1
   1438   1446     1
   1440   1456     1
   1440   1448     1
   1444   1459     1
   1444   1452     1
   1445   1460     1
   1445   1508     1
   1445   1448     1
   1446   1453     1
   1446   1484     1
   1446   1456     1
   1448   1465     1
   1452   1466     1
   1452   1464     1
   1453   1465     1
   1456   1489     1
   1459   1490     1
   1459   1488     1
   1460   1489     1
   1461   1465     1
   1461   1471     1
   1461   1470     1
   1462   1466     1
   1462   1484     1
   1462   1477     1
   1464   1470     1
   1464   1479     1
   1464   1472     1
   1465   1482     1
   1466   1472     1
   1466   1471     1
   1470   1484     1
   1471   1484     1
   1471   1482     1
   1472   1482     1
   1477   1479     1
   1479   1484     1
   1479   1482     1
   1485   1489     1
   1485   1495     1
   1485   1494     1
   1486   1490     1
   1486   1508     1
   1486   1501     1
   1488   1494     1
   1488   1503     1
   1488   1496     1
   1489   1506     1
   1490   1496     1
   1490   1495     1
   1494   1508     1
   1495   1508     1
   1495   1506     1
   1496   1506     1
   1501   1503     1
   1503   1508     1
   1503   1506     1
      1     10     1
      1     11     1
      1     13     1
      1     14     1
      2      7     1
      2      5     1
      2      6     1
      2      9     1
      2     12     1
      3      7     1
      3      5     1
      3      6     1
      3      9     1
      3     12     1
      4     16     1
      4     17     1
      4     19     1
      4     20     1
      8      5     1
      5     15     1
      5     18     1
      8      6     1
      6     15     1
      6     18     1
      7     22     1
      7     23     1
      7     25     1
      7     26     1
      8     31     1
      8     32     1
      8     28     1
      8     29     1
      9     13     1
      9     14     1
     10     12     1
     10     34     1
     10     31     1
     10     32     1
     11     12     1
     11     34     1
     11     31     1
     11     32     1
     13     33     1
     13     28     1
     13     29     1
     14     33     1
     14     28     1
     14     29     1
     15     19     1
     15     20     1
     16     18     1
     16     35     1
     16     22     1
     16     23     1
     17     18     1
     17     35     1
     17     22     1
     17     23     1
     19     36     1
     19     25     1
     19     26     1
     20     36     1
     20     25     1
     20     26     1
     21    115     1
     22     38     1
     22    114     1
     23     38     1
     23    114     1
     24    140     1
     25     39     1
     25    139     1
     26     39     1
     26    139     1
     27     65     1
     28     37     1
     28     64     1
     29     37     1
     29     64     1
     30     90     1
     31     40     1
     31     89     1
     32     40     1
     32     89     1
     33     45     1
     33     46     1
     34     70     1
     34     71     1
     35     95     1
     35     96     1
     36    120     1
     36    121     1
     37     65     1
     38    115     1
     39    140     1
     40     90     1
     41     65     1
     41     49     1
     41     50     1
     41     52     1
     41     53     1
     42     64     1
     42     45     1
     42     46     1
     42     48     1
     42     51     1
     43     64     1
     43     45     1
     43     46     1
     43     48     1
     43     51     1
     45     47     1
     45     65     1
     46     47     1
     46     65     1
     47     58     1
     47     59     1
     47     55     1
     47     56     1
     48     52     1
     48     53     1
     49     51     1
     49     61     1
     49     58     1
     49     59     1
     50     51     1
     50     61     1
     50     58     1
     50     59     1
     52     60     1
     52     55     1
     52     56     1
     53     60     1
     53     55     1
     53     56     1
     54    165     1
     55     62     1
     55    164     1
     56     62     1
     56    164     1
     57    190     1
     58     63     1
     58    189     1
     59     63     1
     59    189     1
     60    145     1
     60    146     1
     61    170     1
     61    171     1
     62    165     1
     63    190     1
     66     90     1
     66     74     1
     66     75     1
     66     77     1
     66     78     1
     67     89     1
     67     70     1
     67     71     1
     67     73     1
     67     76     1
     68     89     1
     68     70     1
     68     71     1
     68     73     1
     68     76     1
     70     72     1
     70     90     1
     71     72     1
     71     90     1
     72     83     1
     72     84     1
     72     80     1
     72     81     1
     73     77     1
     73     78     1
     74     76     1
     74     86     1
     74     83     1
     74     84     1
     75     76     1
     75     86     1
     75     83     1
     75     84     1
     77     85     1
     77     80     1
     77     81     1
     78     85     1
     78     80     1
     78     81     1
     79    215     1
     80     87     1
     80    214     1
     81     87     1
     81    214     1
     82    240     1
     83     88     1
     83    239     1
     84     88     1
     84    239     1
     85    195     1
     85    196     1
     86    220     1
     86    221     1
     87    215     1
     88    240     1
     91    115     1
     91     99     1
     91    100     1
     91    102     1
     91    103     1
     92    114     1
     92     95     1
     92     96     1
     92     98     1
     92    101     1
     93    114     1
     93     95     1
     93     96     1
     93     98     1
     93    101     1
     95     97     1
     95    115     1
     96     97     1
     96    115     1
     97    108     1
     97    109     1
     97    105     1
     97    106     1
     98    102     1
     98    103     1
     99    101     1
     99    111     1
     99    108     1
     99    109     1
    100    101     1
    100    111     1
    100    108     1
    100    109     1
    102    110     1
    102    105     1
    102    106     1
    103    110     1
    103    105     1
    103    106     1
    104    265     1
    105    112     1
    105    264     1
    106    112     1
    106    264     1
    107    290     1
    108    113     1
    108    289     1
    109    113     1
    109    289     1
    110    245     1
    110    246     1
    111    270     1
    111    271     1
    112    265     1
    113    290     1
    116    140     1
    116    124     1
    116    125     1
    116    127     1
    116    128     1
    117    139     1
    117    120     1
    117    121     1
    117    123     1
    117    126     1
    118    139     1
    118    120     1
    118    121     1
    118    123     1
    118    126     1
    120    122     1
    120    140     1
    121    122     1
    121    140     1
    122    133     1
    122    134     1
    122    130     1
    122    131     1
    123    127     1
    123    128     1
    124    126     1
    124    136     1
    124    133     1
    124    134     1
    125    126     1
    125    136     1
    125    133     1
    125    134     1
    127    135     1
    127    130     1
    127    131     1
    128    135     1
    128    130     1
    128    131     1
    129    315     1
    130    137     1
    130    314     1
    131    137     1
    131    314     1
    132    340     1
    133    138     1
    133    339     1
    134    138     1
    134    339     1
    135    295     1
    135    296     1
    136    320     1
    136    321     1
    137    315     1
    138    340     1
    141    165     1
    141    149     1
    141    150     1
    141    152     1
    141    153     1
    142    164     1
    142    145     1
    142    146     1
    142    148     1
    142    151     1
    143    164     1
    143    145     1
    143    146     1
    143    148     1
    143    151     1
    145    147     1
    145    165     1
    146    147     1
    146    165     1
    147    158     1
    147    159     1
    147    155     1
    147    156     1
    148    152     1
    148    153     1
    149    151     1
    149    161     1
    149    158     1
    149    159     1
    150    151     1
    150    161     1
    150    158     1
    150    159     1
    152    160     1
    152    155     1
    152    156     1
    153    160     1
    153    155     1
    153    156     1
    154    342     1
    155    341     1
    155    162     1
    156    341     1
    156    162     1
    157    415     1
    158    163     1
    158    414     1
    159    163     1
    159    414     1
    160    344     1
    160    346     1
    161    417     1
    161    419     1
    162    342     1
    163    415     1
    166    190     1
    166    174     1
    166    175     1
    166    177     1
    166    178     1
    167    189     1
    167    170     1
    167    171     1
    167    173     1
    167    176     1
    168    189     1
    168    170     1
    168    171     1
    168    173     1
    168    176     1
    170    172     1
    170    190     1
    171    172     1
    171    190     1
    172    183     1
    172    184     1
    172    180     1
    172    181     1
    173    177     1
    173    178     1
    174    176     1
    174    186     1
    174    183     1
    174    184     1
    175    176     1
    175    186     1
    175    183     1
    175    184     1
    177    185     1
    177    180     1
    177    181     1
    178    185     1
    178    180     1
    178    181     1
    179    488     1
    180    487     1
    180    187     1
    181    487     1
    181    187     1
    182    561     1
    183    188     1
    183    560     1
    184    188     1
    184    560     1
    185    490     1
    185    492     1
    186    563     1
    186    565     1
    187    488     1
    188    561     1
    191    215     1
    191    199     1
    191    200     1
    191    202     1
    191    203     1
    192    214     1
    192    195     1
    192    196     1
    192    198     1
    192    201     1
    193    214     1
    193    195     1
    193    196     1
    193    198     1
    193    201     1
    195    197     1
    195    215     1
    196    197     1
    196    215     1
    197    208     1
    197    209     1
    197    205     1
    197    206     1
    198    202     1
    198    203     1
    199    201     1
    199    211     1
    199    208     1
    199    209     1
    200    201     1
    200    211     1
    200    208     1
    200    209     1
    202    210     1
    202    205     1
    202    206     1
    203    210     1
    203    205     1
    203    206     1
    204    634     1
    205    633     1
    205    212     1
    206    633     1
    206    212     1
    207    707     1
    208    213     1
    208    706     1
    209    213     1
    209    706     1
    210    636     1
    210    638     1
    211    709     1
    211    711     1
    212    634     1
    213    707     1
    216    240     1
    216    224     1
    216    225     1
    216    227     1
    216    228     1
    217    239     1
    217    220     1
    217    221     1
    217    223     1
    217    226     1
    218    239     1
    218    220     1
    218    221     1
    218    223     1
    218    226     1
    220    222     1
    220    240     1
    221    222     1
    221    240     1
    222    233     1
    222    234     1
    222    230     1
    222    231     1
    223    227     1
    223    228     1
    224    226     1
    224    236     1
    224    233     1
    224    234     1
    225    226     1
    225    236     1
    225    233     1
    225    234     1
    227    235     1
    227    230     1
    227    231     1
    228    235     1
    228    230     1
    228    231     1
    229    780     1
    230    779     1
    230    237     1
    231    779     1
    231    237     1
    232    853     1
    233    238     1
    233    852     1
    234    238     1
    234    852     1
    235    782     1
    235    784     1
    236    855     1
    236    857     1
    237    780     1
    238    853     1
    241    265     1
    241    249     1
    241    250     1
    241    252     1
    241    253     1
    242    264     1
    242    245     1
    242    246     1
    242    248     1
    242    251     1
    243    264     1
    243    245     1
    243    246     1
    243    248     1
    243    251     1
    245    247     1
    245    265     1
    246    247     1
    246    265     1
    247    258     1
    247    259     1
    247    255     1
    247    256     1
    248    252     1
    248    253     1
    249    251     1
    249    261     1
    249    258     1
    249    259     1
    250    251     1
    250    261     1
    250    258     1
    250    259     1
    252    260     1
    252    255     1
    252    256     1
    253    260     1
    253    255     1
    253    256     1
    254    926     1
    255    925     1
    255    262     1
    256    925     1
    256    262     1
    257    999     1
    258    263     1
    258    998     1
    259    263     1
    259    998     1
    260    928     1
    260    930     1
    261   1001     1
    261   1003     1
    262    926     1
    263    999     1
    266    290     1
    266    274     1
    266    275     1
    266    277     1
    266    278     1
    267    289     1
    267    270     1
    267    271     1
    267    273     1
    267    276     1
    268    289     1
    268    270     1
    268    271     1
    268    273     1
    268    276     1
    270    272     1
    270    290     1
    271    272     1
    271    290     1
    272    283     1
    272    284     1
    272    280     1
    272    281     1
    273    277     1
    273    278     1
    274    276     1
    274    286     1
    274    283     1
    274    284     1
    275    276     1
    275    286     1
    275    283     1
    275    284     1
    277    285     1
    277    280     1
    277    281     1
    278    285     1
    278    280     1
    278    281     1
    279   1072     1
    280   1071     1
    280    287     1
    281   1071     1
    281    287     1
    282   1145     1
    283    288     1
    283   1144     1
    284    288     1
    284   1144     1
    285   1074     1
    285   1076     1
    286   1147     1
    286   1149     1
    287   1072     1
    288   1145     1
    291    315     1
    291    299     1
    291    300     1
    291    302     1
    291    303     1
    292    314     1
    292    295     1
    292    296     1
    292    298     1
    292    301     1
    293    314     1
    293    295     1
    293    296     1
    293    298     1
    293    301     1
    295    297     1
    295    315     1
    296    297     1
    296    315     1
    297    308     1
    297    309     1
    297    305     1
    297    306     1
    298    302     1
    298    303     1
    299    301     1
    299    311     1
    299    308     1
    299    309     1
    300    301     1
    300    311     1
    300    308     1
    300    309     1
    302    310     1
    302    305     1
    302    306     1
    303    310     1
    303    305     1
    303    306     1
    304   1218     1
    305   1217     1
    305    312     1
    306   1217     1
    306    312     1
    307   1291     1
    308    313     1
    308   1290     1
    309    313     1
    309   1290     1
    310   1220     1
    310   1222     1
    311   1293     1
    311   1295     1
    312   1218     1
    313   1291     1
    316    340     1
    316    324     1
    316    325     1
    316    327     1
    316    328     1
    317    339     1
    317    320     1
    317    321     1
    317    323     1
    317    326     1
    318    339     1
    318    320     1
    318    321     1
    318    323     1
    318    326     1
    320    322     1
    320    340     1
    321    322     1
    321    340     1
    322    333     1
    322    334     1
    322    330     1
    322    331     1
    323    327     1
    323    328     1
    324    326     1
    324    336     1
    324    333     1
    324    334     1
    325    326     1
    325    336     1
    325    333     1
    325    334     1
    327    335     1
    327    330     1
    327    331     1
    328    335     1
    328    330     1
    328    331     1
    329   1364     1
    330   1363     1
    330    337     1
    331   1363     1
    331    337     1
    332   1437     1
    333   1436     1
    333    338     1
    334   1436     1
    334    338     1
    335   1366     1
    335   1368     1
    336   1439     1
    336   1441     1
    337   1364     1
    338   1437     1
    341    347     1
    341    348     1
    342    345     1
    342    344     1
    342    346     1
    344    349     1
    344    347     1
    344    348     1
    345    359     1
    345    360     1
    345    352     1
    345    354     1
    346    349     1
    346    347     1
    346    348     1
    347    350     1
    347    351     1
    348    350     1
    348    351     1
    349    362     1
    349    363     1
    349    355     1
    349    356     1
    350    352     1
    350    354     1
    351    359     1
    351    360     1
    352    357     1
    352    355     1
    352    356     1
    353    379     1
    354    357     1
    354    355     1
    354    356     1
    355    358     1
    355    389     1
    356    358     1
    356    389     1
    357    372     1
    358    379     1
    359    364     1
    359    362     1
    359    363     1
    360    364     1
    360    362     1
    360    363     1
    361    403     1
    362    365     1
    362    413     1
    363    365     1
    363    413     1
    364    396     1
    365    403     1
    366    373     1
    366    388     1
    366    383     1
    366    374     1
    367    380     1
    367    381     1
    367    372     1
    367    378     1
    368    369     1
    368    387     1
    368    386     1
    368    382     1
    368    380     1
    368    381     1
    368    371     1
    369    388     1
    369    374     1
    369    379     1
    370    386     1
    370    378     1
    370    385     1
    371    373     1
    371    379     1
    372    376     1
    372    373     1
    372    375     1
    372    384     1
    372    374     1
    372    379     1
    373    387     1
    373    386     1
    373    389     1
    373    378     1
    374    389     1
    374    385     1
    376    386     1
    377    386     1
    380    384     1
    380    383     1
    381    384     1
    381    383     1
    384    386     1
    384    385     1
    386    388     1
    390    397     1
    390    412     1
    390    407     1
    390    398     1
    391    404     1
    391    405     1
    391    396     1
    391    402     1
    392    393     1
    392    411     1
    392    410     1
    392    406     1
    392    404     1
    392    405     1
    392    395     1
    393    412     1
    393    398     1
    393    403     1
    394    410     1
    394    402     1
    394    409     1
    395    397     1
    395    403     1
    396    400     1
    396    397     1
    396    399     1
    396    408     1
    396    398     1
    396    403     1
    397    411     1
    397    410     1
    397    413     1
    397    402     1
    398    413     1
    398    409     1
    400    410     1
    401    410     1
    404    408     1
    404    407     1
    405    408     1
    405    407     1
    408    410     1
    408    409     1
    410    412     1
    414    420     1
    414    421     1
    415    418     1
    415    417     1
    415    419     1
    417    422     1
    417    420     1
    417    421     1
    418    432     1
    418    433     1
    418    425     1
    418    427     1
    419    422     1
    419    420     1
    419    421     1
    420    423     1
    420    424     1
    421    423     1
    421    424     1
    422    435     1
    422    436     1
    422    428     1
    422    429     1
    423    425     1
    423    427     1
    424    432     1
    424    433     1
    425    430     1
    425    428     1
    425    429     1
    426    452     1
    427    430     1
    427    428     1
    427    429     1
    428    431     1
    428    462     1
    429    431     1
    429    462     1
    430    445     1
    431    452     1
    432    437     1
    432    435     1
    432    436     1
    433    437     1
    433    435     1
    433    436     1
    434    476     1
    435    438     1
    435    486     1
    436    438     1
    436    486     1
    437    469     1
    438    476     1
    439    446     1
    439    461     1
    439    456     1
    439    447     1
    440    445     1
    440    451     1
    440    453     1
    440    454     1
    441    442     1
    441    460     1
    441    459     1
    441    455     1
    441    453     1
    441    454     1
    441    444     1
    442    447     1
    442    452     1
    442    461     1
    443    458     1
    443    451     1
    443    459     1
    444    452     1
    444    446     1
    445    448     1
    445    457     1
    445    447     1
    445    452     1
    445    449     1
    445    446     1
    446    462     1
    446    451     1
    446    460     1
    446    459     1
    447    458     1
    447    462     1
    449    459     1
    450    459     1
    453    456     1
    453    457     1
    454    456     1
    454    457     1
    457    458     1
    457    459     1
    459    461     1
    463    470     1
    463    485     1
    463    480     1
    463    471     1
    464    469     1
    464    475     1
    464    477     1
    464    478     1
    465    466     1
    465    484     1
    465    483     1
    465    479     1
    465    477     1
    465    478     1
    465    468     1
    466    471     1
    466    476     1
    466    485     1
    467    482     1
    467    475     1
    467    483     1
    468    476     1
    468    470     1
    469    472     1
    469    481     1
    469    471     1
    469    476     1
    469    473     1
    469    470     1
    470    486     1
    470    475     1
    470    484     1
    470    483     1
    471    482     1
    471    486     1
    473    483     1
    474    483     1
    477    480     1
    477    481     1
    478    480     1
    478    481     1
    481    482     1
    481    483     1
    483    485     1
    487    493     1
    487    494     1
    488    491     1
    488    490     1
    488    492     1
    490    495     1
    490    493     1
    490    494     1
    491    505     1
    491    506     1
    491    498     1
    491    500     1
    492    495     1
    492    493     1
    492    494     1
    493    496     1
    493    497     1
    494    496     1
    494    497     1
    495    508     1
    495    509     1
    495    501     1
    495    502     1
    496    498     1
    496    500     1
    497    505     1
    497    506     1
    498    503     1
    498    501     1
    498    502     1
    499    525     1
    500    503     1
    500    501     1
    500    502     1
    501    504     1
    501    535     1
    502    504     1
    502    535     1
    503    518     1
    504    525     1
    505    510     1
    505    508     1
    505    509     1
    506    510     1
    506    508     1
    506    509     1
    507    549     1
    508    511     1
    508    559     1
    509    511     1
    509    559     1
    510    542     1
    511    549     1
    512    519     1
    512    534     1
    512    529     1
    512    520     1
    513    526     1
    513    527     1
    513    518     1
    513    524     1
    514    515     1
    514    533     1
    514    532     1
    514    528     1
    514    526     1
    514    527     1
    514    517     1
    515    534     1
    515    520     1
    515    525     1
    516    532     1
    516    524     1
    516    531     1
    517    519     1
    517    525     1
    518    522     1
    518    519     1
    518    521     1
    518    530     1
    518    520     1
    518    525     1
    519    533     1
    519    532     1
    519    535     1
    519    524     1
    520    535     1
    520    531     1
    522    532     1
    523    532     1
    526    530     1
    526    529     1
    527    530     1
    527    529     1
    530    532     1
    530    531     1
    532    534     1
    536    543     1
    536    558     1
    536    553     1
    536    544     1
    537    550     1
    537    551     1
    537    542     1
    537    548     1
    538    539     1
    538    557     1
    538    556     1
    538    552     1
    538    550     1
    538    551     1
    538    541     1
    539    558     1
    539    544     1
    539    549     1
    540    556     1
    540    548     1
    540    555     1
    541    543     1
    541    549     1
    542    546     1
    542    543     1
    542    545     1
    542    554     1
    542    544     1
    542    549     1
    543    557     1
    543    556     1
    543    559     1
    543    548     1
    544    559     1
    544    555     1
    546    556     1
    547    556     1
    550    554     1
    550    553     1
    551    554     1
    551    553     1
    554    556     1
    554    555     1
    556    558     1
    560    566     1
    560    567     1
    561    564     1
    561    563     1
    561    565     1
    563    568     1
    563    566     1
    563    567     1
    564    578     1
    564    579     1
    564    571     1
    564    573     1
    565    568     1
    565    566     1
    565    567     1
    566    569     1
    566    570     1
    567    569     1
    567    570     1
    568    581     1
    568    582     1
    568    574     1
    568    575     1
    569    571     1
    569    573     1
    570    578     1
    570    579     1
    571    576     1
    571    574     1
    571    575     1
    572    598     1
    573    576     1
    573    574     1
    573    575     1
    574    577     1
    574    608     1
    575    577     1
    575    608     1
    576    591     1
    577    598     1
    578    583     1
    578    581     1
    578    582     1
    579    583     1
    579    581     1
    579    582     1
    580    622     1
    581    584     1
    581    632     1
    582    584     1
    582    632     1
    583    615     1
    584    622     1
    585    592     1
    585    607     1
    585    602     1
    585    593     1
    586    591     1
    586    597     1
    586    599     1
    586    600     1
    587    588     1
    587    606     1
    587    605     1
    587    601     1
    587    599     1
    587    600     1
    587    590     1
    588    593     1
    588    598     1
    588    607     1
    589    604     1
    589    597     1
    589    605     1
    590    598     1
    590    592     1
    591    594     1
    591    603     1
    591    593     1
    591    598     1
    591    595     1
    591    592     1
    592    608     1
    592    597     1
    592    606     1
    592    605     1
    593    604     1
    593    608     1
    595    605     1
    596    605     1
    599    602     1
    599    603     1
    600    602     1
    600    603     1
    603    604     1
    603    605     1
    605    607     1
    609    616     1
    609    631     1
    609    626     1
    609    617     1
    610    615     1
    610    621     1
    610    623     1
    610    624     1
    611    612     1
    611    630     1
    611    629     1
    611    625     1
    611    623     1
    611    624     1
    611    614     1
    612    617     1
    612    622     1
    612    631     1
    613    628     1
    613    621     1
    613    629     1
    614    622     1
    614    616     1
    615    618     1
    615    627     1
    615    617     1
    615    622     1
    615    619     1
    615    616     1
    616    632     1
    616    621     1
    616    630     1
    616    629     1
    617    628     1
    617    632     1
    619    629     1
    620    629     1
    623    626     1
    623    627     1
    624    626     1
    624    627     1
    627    628     1
    627    629     1
    629    631     1
    633    639     1
    633    640     1
    634    637     1
    634    636     1
    634    638     1
    636    641     1
    636    639     1
    636    640     1
    637    651     1
    637    652     1
    637    644     1
    637    646     1
    638    641     1
    638    639     1
    638    640     1
    639    642     1
    639    643     1
    640    642     1
    640    643     1
    641    654     1
    641    655     1
    641    647     1
    641    648     1
    642    644     1
    642    646     1
    643    651     1
    643    652     1
    644    649     1
    644    647     1
    644    648     1
    645    671     1
    646    649     1
    646    647     1
    646    648     1
    647    650     1
    647    681     1
    648    650     1
    648    681     1
    649    664     1
    650    671     1
    651    656     1
    651    654     1
    651    655     1
    652    656     1
    652    654     1
    652    655     1
    653    695     1
    654    657     1
    654    705     1
    655    657     1
    655    705     1
    656    688     1
    657    695     1
    658    665     1
    658    680     1
    658    675     1
    658    666     1
    659    672     1
    659    673     1
    659    664     1
    659    670     1
    660    661     1
    660    679     1
    660    678     1
    660    674     1
    660    672     1
    660    673     1
    660    663     1
    661    680     1
    661    666     1
    661    671     1
    662    678     1
    662    670     1
    662    677     1
    663    665     1
    663    671     1
    664    668     1
    664    665     1
    664    667     1
    664    676     1
    664    666     1
    664    671     1
    665    679     1
    665    678     1
    665    681     1
    665    670     1
    666    681     1
    666    677     1
    668    678     1
    669    678     1
    672    676     1
    672    675     1
    673    676     1
    673    675     1
    676    678     1
    676    677     1
    678    680     1
    682    689     1
    682    704     1
    682    699     1
    682    690     1
    683    696     1
    683    697     1
    683    688     1
    683    694     1
    684    685     1
    684    703     1
    684    702     1
    684    698     1
    684    696     1
    684    697     1
    684    687     1
    685    704     1
    685    690     1
    685    695     1
    686    702     1
    686    694     1
    686    701     1
    687    689     1
    687    695     1
    688    692     1
    688    689     1
    688    691     1
    688    700     1
    688    690     1
    688    695     1
    689    703     1
    689    702     1
    689    705     1
    689    694     1
    690    705     1
    690    701     1
    692    702     1
    693    702     1
    696    700     1
    696    699     1
    697    700     1
    697    699     1
    700    702     1
    700    701     1
    702    704     1
    706    712     1
    706    713     1
    707    710     1
    707    709     1
    707    711     1
    709    714     1
    709    712     1
    709    713     1
    710    724     1
    710    725     1
    710    717     1
    710    719     1
    711    714     1
    711    712     1
    711    713     1
    712    715     1
    712    716     1
    713    715     1
    713    716     1
    714    727     1
    714    728     1
    714    720     1
    714    721     1
    715    717     1
    715    719     1
    716    724     1
    716    725     1
    717    722     1
    717    720     1
    717    721     1
    718    744     1
    719    722     1
    719    720     1
    719    721     1
    720    723     1
    720    754     1
    721    723     1
    721    754     1
    722    737     1
    723    744     1
    724    729     1
    724    727     1
    724    728     1
    725    729     1
    725    727     1
    725    728     1
    726    768     1
    727    730     1
    727    778     1
    728    730     1
    728    778     1
    729    761     1
    730    768     1
    731    738     1
    731    753     1
    731    748     1
    731    739     1
    732    737     1
    732    743     1
    732    745     1
    732    746     1
    733    734     1
    733    752     1
    733    751     1
    733    747     1
    733    745     1
    733    746     1
    733    736     1
    734    739     1
    734    744     1
    734    753     1
    735    750     1
    735    743     1
    735    751     1
    736    744     1
    736    738     1
    737    740     1
    737    749     1
    737    739     1
    737    744     1
    737    741     1
    737    738     1
    738    754     1
    738    743     1
    738    752     1
    738    751     1
    739    750     1
    739    754     1
    741    751     1
    742    751     1
    745    748     1
    745    749     1
    746    748     1
    746    749     1
    749    750     1
    749    751     1
    751    753     1
    755    762     1
    755    777     1
    755    772     1
    755    763     1
    756    761     1
    756    767     1
    756    769     1
    756    770     1
    757    758     1
    757    776     1
    757    775     1
    757    771     1
    757    769     1
    757    770     1
    757    760     1
    758    763     1
    758    768     1
    758    777     1
    759    774     1
    759    767     1
    759    775     1
    760    768     1
    760    762     1
    761    764     1
    761    773     1
    761    763     1
    761    768     1
    761    765     1
    761    762     1
    762    778     1
    762    767     1
    762    776     1
    762    775     1
    763    774     1
    763    778     1
    765    775     1
    766    775     1
    769    772     1
    769    773     1
    770    772     1
    770    773     1
    773    774     1
    773    775     1
    775    777     1
    779    785     1
    779    786     1
    780    783     1
    780    782     1
    780    784     1
    782    787     1
    782    785     1
    782    786     1
    783    797     1
    783    798     1
    783    790     1
    783    792     1
    784    787     1
    784    785     1
    784    786     1
    785    788     1
    785    789     1
    786    788     1
    786    789     1
    787    800     1
    787    801     1
    787    793     1
    787    794     1
    788    790     1
    788    792     1
    789    797     1
    789    798     1
    790    795     1
    790    793     1
    790    794     1
    791    817     1
    792    795     1
    792    793     1
    792    794     1
    793    796     1
    793    827     1
    794    796     1
    794    827     1
    795    810     1
    796    817     1
    797    802     1
    797    800     1
    797    801     1
    798    802     1
    798    800     1
    798    801     1
    799    841     1
    800    803     1
    800    851     1
    801    803     1
    801    851     1
    802    834     1
    803    841     1
    804    811     1
    804    826     1
    804    821     1
    804    812     1
    805    818     1
    805    819     1
    805    810     1
    805    816     1
    806    807     1
    806    825     1
    806    824     1
    806    820     1
    806    818     1
    806    819     1
    806    809     1
    807    826     1
    807    812     1
    807    817     1
    808    824     1
    808    816     1
    808    823     1
    809    811     1
    809    817     1
    810    814     1
    810    811     1
    810    813     1
    810    822     1
    810    812     1
    810    817     1
    811    825     1
    811    824     1
    811    827     1
    811    816     1
    812    827     1
    812    823     1
    814    824     1
    815    824     1
    818    822     1
    818    821     1
    819    822     1
    819    821     1
    822    824     1
    822    823     1
    824    826     1
    828    835     1
    828    850     1
    828    845     1
    828    836     1
    829    842     1
    829    843     1
    829    834     1
    829    840     1
    830    831     1
    830    849     1
    830    848     1
    830    844     1
    830    842     1
    830    843     1
    830    833     1
    831    850     1
    831    836     1
    831    841     1
    832    848     1
    832    840     1
    832    847     1
    833    835     1
    833    841     1
    834    838     1
    834    835     1
    834    837     1
    834    846     1
    834    836     1
    834    841     1
    835    849     1
    835    848     1
    835    851     1
    835    840     1
    836    851     1
    836    847     1
    838    848     1
    839    848     1
    842    846     1
    842    845     1
    843    846     1
    843    845     1
    846    848     1
    846    847     1
    848    850     1
    852    858     1
    852    859     1
    853    856     1
    853    855     1
    853    857     1
    855    860     1
    855    858     1
    855    859     1
    856    870     1
    856    871     1
    856    863     1
    856    865     1
    857    860     1
    857    858     1
    857    859     1
    858    861     1
    858    862     1
    859    861     1
    859    862     1
    860    873     1
    860    874     1
    860    866     1
    860    867     1
    861    863     1
    861    865     1
    862    870     1
    862    871     1
    863    868     1
    863    866     1
    863    867     1
    864    890     1
    865    868     1
    865    866     1
    865    867     1
    866    869     1
    866    900     1
    867    869     1
    867    900     1
    868    883     1
    869    890     1
    870    875     1
    870    873     1
    870    874     1
    871    875     1
    871    873     1
    871    874     1
    872    914     1
    873    876     1
    873    924     1
    874    876     1
    874    924     1
    875    907     1
    876    914     1
    877    884     1
    877    899     1
    877    894     1
    877    885     1
    878    883     1
    878    889     1
    878    891     1
    878    892     1
    879    880     1
    879    898     1
    879    897     1
    879    893     1
    879    891     1
    879    892     1
    879    882     1
    880    885     1
    880    890     1
    880    899     1
    881    896     1
    881    889     1
    881    897     1
    882    890     1
    882    884     1
    883    886     1
    883    895     1
    883    885     1
    883    890     1
    883    887     1
    883    884     1
    884    900     1
    884    889     1
    884    898     1
    884    897     1
    885    896     1
    885    900     1
    887    897     1
    888    897     1
    891    894     1
    891    895     1
    892    894     1
    892    895     1
    895    896     1
    895    897     1
    897    899     1
    901    908     1
    901    923     1
    901    918     1
    901    909     1
    902    907     1
    902    913     1
    902    915     1
    902    916     1
    903    904     1
    903    922     1
    903    921     1
    903    917     1
    903    915     1
    903    916     1
    903    906     1
    904    909     1
    904    914     1
    904    923     1
    905    920     1
    905    913     1
    905    921     1
    906    914     1
    906    908     1
    907    910     1
    907    919     1
    907    909     1
    907    914     1
    907    911     1
    907    908     1
    908    924     1
    908    913     1
    908    922     1
    908    921     1
    909    920     1
    909    924     1
    911    921     1
    912    921     1
    915    918     1
    915    919     1
    916    918     1
    916    919     1
    919    920     1
    919    921     1
    921    923     1
    925    931     1
    925    932     1
    926    929     1
    926    928     1
    926    930     1
    928    933     1
    928    931     1
    928    932     1
    929    943     1
    929    944     1
    929    936     1
    929    938     1
    930    933     1
    930    931     1
    930    932     1
    931    934     1
    931    935     1
    932    934     1
    932    935     1
    933    946     1
    933    947     1
    933    939     1
    933    940     1
    934    936     1
    934    938     1
    935    943     1
    935    944     1
    936    941     1
    936    939     1
    936    940     1
    937    963     1
    938    941     1
    938    939     1
    938    940     1
    939    942     1
    939    973     1
    940    942     1
    940    973     1
    941    956     1
    942    963     1
    943    948     1
    943    946     1
    943    947     1
    944    948     1
    944    946     1
    944    947     1
    945    987     1
    946    949     1
    946    997     1
    947    949     1
    947    997     1
    948    980     1
    949    987     1
    950    957     1
    950    972     1
    950    967     1
    950    958     1
    951    964     1
    951    965     1
    951    956     1
    951    962     1
    952    953     1
    952    971     1
    952    970     1
    952    966     1
    952    964     1
    952    965     1
    952    955     1
    953    972     1
    953    958     1
    953    963     1
    954    970     1
    954    962     1
    954    969     1
    955    957     1
    955    963     1
    956    960     1
    956    957     1
    956    959     1
    956    968     1
    956    958     1
    956    963     1
    957    971     1
    957    970     1
    957    973     1
    957    962     1
    958    973     1
    958    969     1
    960    970     1
    961    970     1
    964    968     1
    964    967     1
    965    968     1
    965    967     1
    968    970     1
    968    969     1
    970    972     1
    974    981     1
    974    996     1
    974    991     1
    974    982     1
    975    988     1
    975    989     1
    975    980     1
    975    986     1
    976    977     1
    976    995     1
    976    994     1
    976    990     1
    976    988     1
    976    989     1
    976    979     1
    977    996     1
    977    982     1
    977    987     1
    978    994     1
    978    986     1
    978    993     1
    979    981     1
    979    987     1
    980    984     1
    980    981     1
    980    983     1
    980    992     1
    980    982     1
    980    987     1
    981    995     1
    981    994     1
    981    997     1
    981    986     1
    982    997     1
    982    993     1
    984    994     1
    985    994     1
    988    992     1
    988    991     1
    989    992     1
    989    991     1
    992    994     1
    992    993     1
    994    996     1
    998   1004     1
    998   1005     1
    999   1002     1
    999   1001     1
    999   1003     1
   1001   1006     1
   1001   1004     1
   1001   1005     1
   1002   1016     1
   1002   1017     1
   1002   1009     1
   1002   1011     1
   1003   1006     1
   1003   1004     1
   1003   1005     1
   1004   1007     1
   1004   1008     1
   1005   1007     1
   1005   1008     1
   1006   1019     1
   1006   1020     1
   1006   1012     1
   1006   1013     1
   1007   1009     1
   1007   1011     1
   1008   1016     1
   1008   1017     1
   1009   1014     1
   1009   1012     1
   1009   1013     1
   1010   1036     1
   1011   1014     1
   1011   1012     1
   1011   1013     1
   1012   1015     1
   1012   1046     1
   1013   1015     1
   1013   1046     1
   1014   1029     1
   1015   1036     1
   1016   1021     1
   1016   1019     1
   1016   1020     1
   1017   1021     1
   1017   1019     1
   1017   1020     1
   1018   1060     1
   1019   1022     1
   1019   1070     1
   1020   1022     1
   1020   1070     1
   1021   1053     1
   1022   1060     1
   1023   1030     1
   1023   1045     1
   1023   1040     1
   1023   1031     1
   1024   1029     1
   1024   1035     1
   1024   1037     1
   1024   1038     1
   1025   1026     1
   1025   1044     1
   1025   1043     1
   1025   1039     1
   1025   1037     1
   1025   1038     1
   1025   1028     1
   1026   1031     1
   1026   1036     1
   1026   1045     1
   1027   1042     1
   1027   1035     1
   1027   1043     1
   1028   1036     1
   1028   1030     1
   1029   1032     1
   1029   1041     1
   1029   1031     1
   1029   1036     1
   1029   1033     1
   1029   1030     1
   1030   1046     1
   1030   1035     1
   1030   1044     1
   1030   1043     1
   1031   1042     1
   1031   1046     1
   1033   1043     1
   1034   1043     1
   1037   1040     1
   1037   1041     1
   1038   1040     1
   1038   1041     1
   1041   1042     1
   1041   1043     1
   1043   1045     1
   1047   1054     1
   1047   1069     1
   1047   1064     1
   1047   1055     1
   1048   1053     1
   1048   1059     1
   1048   1061     1
   1048   1062     1
   1049   1050     1
   1049   1068     1
   1049   1067     1
   1049   1063     1
   1049   1061     1
   1049   1062     1
   1049   1052     1
   1050   1055     1
   1050   1060     1
   1050   1069     1
   1051   1066     1
   1051   1059     1
   1051   1067     1
   1052   1060     1
   1052   1054     1
   1053   1056     1
   1053   1065     1
   1053   1055     1
   1053   1060     1
   1053   1057     1
   1053   1054     1
   1054   1070     1
   1054   1059     1
   1054   1068     1
   1054   1067     1
   1055   1066     1
   1055   1070     1
   1057   1067     1
   1058   1067     1
   1061   1064     1
   1061   1065     1
   1062   1064     1
   1062   1065     1
   1065   1066     1
   1065   1067     1
   1067   1069     1
   1071   1077     1
   1071   1078     1
   1072   1075     1
   1072   1074     1
   1072   1076     1
   1074   1079     1
   1074   1077     1
   1074   1078     1
   1075   1089     1
   1075   1090     1
   1075   1082     1
   1075   1084     1
   1076   1079     1
   1076   1077     1
   1076   1078     1
   1077   1080     1
   1077   1081     1
   1078   1080     1
   1078   1081     1
   1079   1092     1
   1079   1093     1
   1079   1085     1
   1079   1086     1
   1080   1082     1
   1080   1084     1
   1081   1089     1
   1081   1090     1
   1082   1087     1
   1082   1085     1
   1082   1086     1
   1083   1109     1
   1084   1087     1
   1084   1085     1
   1084   1086     1
   1085   1088     1
   1085   1119     1
   1086   1088     1
   1086   1119     1
   1087   1102     1
   1088   1109     1
   1089   1094     1
   1089   1092     1
   1089   1093     1
   1090   1094     1
   1090   1092     1
   1090   1093     1
   1091   1133     1
   1092   1095     1
   1092   1143     1
   1093   1095     1
   1093   1143     1
   1094   1126     1
   1095   1133     1
   1096   1103     1
   1096   1118     1
   1096   1113     1
   1096   1104     1
   1097   1110     1
   1097   1111     1
   1097   1102     1
   1097   1108     1
   1098   1099     1
   1098   1117     1
   1098   1116     1
   1098   1112     1
   1098   1110     1
   1098   1111     1
   1098   1101     1
   1099   1118     1
   1099   1104     1
   1099   1109     1
   1100   1116     1
   1100   1108     1
   1100   1115     1
   1101   1103     1
   1101   1109     1
   1102   1106     1
   1102   1103     1
   1102   1105     1
   1102   1114     1
   1102   1104     1
   1102   1109     1
   1103   1117     1
   1103   1116     1
   1103   1119     1
   1103   1108     1
   1104   1119     1
   1104   1115     1
   1106   1116     1
   1107   1116     1
   1110   1114     1
   1110   1113     1
   1111   1114     1
   1111   1113     1
   1114   1116     1
   1114   1115     1
   1116   1118     1
   1120   1127     1
   1120   1142     1
   1120   1137     1
   1120   1128     1
   1121   1134     1
   1121   1135     1
   1121   1126     1
   1121   1132     1
   1122   1123     1
   1122   1141     1
   1122   1140     1
   1122   1136     1
   1122   1134     1
   1122   1135     1
   1122   1125     1
   1123   1142     1
   1123   1128     1
   1123   1133     1
   1124   1140     1
   1124   1132     1
   1124   1139     1
   1125   1127     1
   1125   1133     1
   1126   1130     1
   1126   1127     1
   1126   1129     1
   1126   1138     1
   1126   1128     1
   1126   1133     1
   1127   1141     1
   1127   1140     1
   1127   1143     1
   1127   1132     1
   1128   1143     1
   1128   1139     1
   1130   1140     1
   1131   1140     1
   1134   1138     1
   1134   1137     1
   1135   1138     1
   1135   1137     1
   1138   1140     1
   1138   1139     1
   1140   1142     1
   1144   1150     1
   1144   1151     1
   1145   1148     1
   1145   1147     1
   1145   1149     1
   1147   1152     1
   1147   1150     1
   1147   1151     1
   1148   1162     1
   1148   1163     1
   1148   1155     1
   1148   1157     1
   1149   1152     1
   1149   1150     1
   1149   1151     1
   1150   1153     1
   1150   1154     1
   1151   1153     1
   1151   1154     1
   1152   1165     1
   1152   1166     1
   1152   1158     1
   1152   1159     1
   1153   1155     1
   1153   1157     1
   1154   1162     1
   1154   1163     1
   1155   1160     1
   1155   1158     1
   1155   1159     1
   1156   1182     1
   1157   1160     1
   1157   1158     1
   1157   1159     1
   1158   1161     1
   1158   1192     1
   1159   1161     1
   1159   1192     1
   1160   1175     1
   1161   1182     1
   1162   1167     1
   1162   1165     1
   1162   1166     1
   1163   1167     1
   1163   1165     1
   1163   1166     1
   1164   1206     1
   1165   1168     1
   1165   1216     1
   1166   1168     1
   1166   1216     1
   1167   1199     1
   1168   1206     1
   1169   1176     1
   1169   1191     1
   1169   1186     1
   1169   1177     1
   1170   1175     1
   1170   1181     1
   1170   1183     1
   1170   1184     1
   1171   1172     1
   1171   1190     1
   1171   1189     1
   1171   1185     1
   1171   1183     1
   1171   1184     1
   1171   1174     1
   1172   1177     1
   1172   1182     1
   1172   1191     1
   1173   1188     1
   1173   1181     1
   1173   1189     1
   1174   1182     1
   1174   1176     1
   1175   1178     1
   1175   1187     1
   1175   1177     1
   1175   1182     1
   1175   1179     1
   1175   1176     1
   1176   1192     1
   1176   1181     1
   1176   1190     1
   1176   1189     1
   1177   1188     1
   1177   1192     1
   1179   1189     1
   1180   1189     1
   1183   1186     1
   1183   1187     1
   1184   1186     1
   1184   1187     1
   1187   1188     1
   1187   1189     1
   1189   1191     1
   1193   1200     1
   1193   1215     1
   1193   1210     1
   1193   1201     1
   1194   1199     1
   1194   1205     1
   1194   1207     1
   1194   1208     1
   1195   1196     1
   1195   1214     1
   1195   1213     1
   1195   1209     1
   1195   1207     1
   1195   1208     1
   1195   1198     1
   1196   1201     1
   1196   1206     1
   1196   1215     1
   1197   1212     1
   1197   1205     1
   1197   1213     1
   1198   1206     1
   1198   1200     1
   1199   1202     1
   1199   1211     1
   1199   1201     1
   1199   1206     1
   1199   1203     1
   1199   1200     1
   1200   1216     1
   1200   1205     1
   1200   1214     1
   1200   1213     1
   1201   1212     1
   1201   1216     1
   1203   1213     1
   1204   1213     1
   1207   1210     1
   1207   1211     1
   1208   1210     1
   1208   1211     1
   1211   1212     1
   1211   1213     1
   1213   1215     1
   1217   1223     1
   1217   1224     1
   1218   1221     1
   1218   1220     1
   1218   1222     1
   1220   1225     1
   1220   1223     1
   1220   1224     1
   1221   1235     1
   1221   1236     1
   1221   1228     1
   1221   1230     1
   1222   1225     1
   1222   1223     1
   1222   1224     1
   1223   1226     1
   1223   1227     1
   1224   1226     1
   1224   1227     1
   1225   1238     1
   1225   1239     1
   1225   1231     1
   1225   1232     1
   1226   1228     1
   1226   1230     1
   1227   1235     1
   1227   1236     1
   1228   1233     1
   1228   1231     1
   1228   1232     1
   1229   1255     1
   1230   1233     1
   1230   1231     1
   1230   1232     1
   1231   1234     1
   1231   1265     1
   1232   1234     1
   1232   1265     1
   1233   1248     1
   1234   1255     1
   1235   1240     1
   1235   1238     1
   1235   1239     1
   1236   1240     1
   1236   1238     1
   1236   1239     1
   1237   1279     1
   1238   1241     1
   1238   1289     1
   1239   1241     1
   1239   1289     1
   1240   1272     1
   1241   1279     1
   1242   1249     1
   1242   1264     1
   1242   1259     1
   1242   1250     1
   1243   1256     1
   1243   1257     1
   1243   1248     1
   1243   1254     1
   1244   1245     1
   1244   1263     1
   1244   1262     1
   1244   1258     1
   1244   1256     1
   1244   1257     1
   1244   1247     1
   1245   1264     1
   1245   1250     1
   1245   1255     1
   1246   1262     1
   1246   1254     1
   1246   1261     1
   1247   1249     1
   1247   1255     1
   1248   1252     1
   1248   1249     1
   1248   1251     1
   1248   1260     1
   1248   1250     1
   1248   1255     1
   1249   1263     1
   1249   1262     1
   1249   1265     1
   1249   1254     1
   1250   1265     1
   1250   1261     1
   1252   1262     1
   1253   1262     1
   1256   1260     1
   1256   1259     1
   1257   1260     1
   1257   1259     1
   1260   1262     1
   1260   1261     1
   1262   1264     1
   1266   1273     1
   1266   1288     1
   1266   1283     1
   1266   1274     1
   1267   1280     1
   1267   1281     1
   1267   1272     1
   1267   1278     1
   1268   1269     1
   1268   1287     1
   1268   1286     1
   1268   1282     1
   1268   1280     1
   1268   1281     1
   1268   1271     1
   1269   1288     1
   1269   1274     1
   1269   1279     1
   1270   1286     1
   1270   1278     1
   1270   1285     1
   1271   1273     1
   1271   1279     1
   1272   1276     1
   1272   1273     1
   1272   1275     1
   1272   1284     1
   1272   1274     1
   1272   1279     1
   1273   1287     1
   1273   1286     1
   1273   1289     1
   1273   1278     1
   1274   1289     1
   1274   1285     1
   1276   1286     1
   1277   1286     1
   1280   1284     1
   1280   1283     1
   1281   1284     1
   1281   1283     1
   1284   1286     1
   1284   1285     1
   1286   1288     1
   1290   1296     1
   1290   1297     1
   1291   1294     1
   1291   1293     1
   1291   1295     1
   1293   1298     1
   1293   1296     1
   1293   1297     1
   1294   1308     1
   1294   1309     1
   1294   1301     1
   1294   1303     1
   1295   1298     1
   1295   1296     1
   1295   1297     1
   1296   1299     1
   1296   1300     1
   1297   1299     1
   1297   1300     1
   1298   1311     1
   1298   1312     1
   1298   1304     1
   1298   1305     1
   1299   1301     1
   1299   1303     1
   1300   1308     1
   1300   1309     1
   1301   1306     1
   1301   1304     1
   1301   1305     1
   1302   1328     1
   1303   1306     1
   1303   1304     1
   1303   1305     1
   1304   1307     1
   1304   1338     1
   1305   1307     1
   1305   1338     1
   1306   1321     1
   1307   1328     1
   1308   1313     1
   1308   1311     1
   1308   1312     1
   1309   1313     1
   1309   1311     1
   1309   1312     1
   1310   1352     1
   1311   1314     1
   1311   1362     1
   1312   1314     1
   1312   1362     1
   1313   1345     1
   1314   1352     1
   1315   1322     1
   1315   1337     1
   1315   1332     1
   1315   1323     1
   1316   1321     1
   1316   1327     1
   1316   1329     1
   1316   1330     1
   1317   1318     1
   1317   1336     1
   1317   1335     1
   1317   1331     1
   1317   1329     1
   1317   1330     1
   1317   1320     1
   1318   1323     1
   1318   1328     1
   1318   1337     1
   1319   1334     1
   1319   1327     1
   1319   1335     1
   1320   1328     1
   1320   1322     1
   1321   1324     1
   1321   1333     1
   1321   1323     1
   1321   1328     1
   1321   1325     1
   1321   1322     1
   1322   1338     1
   1322   1327     1
   1322   1336     1
   1322   1335     1
   1323   1334     1
   1323   1338     1
   1325   1335     1
   1326   1335     1
   1329   1332     1
   1329   1333     1
   1330   1332     1
   1330   1333     1
   1333   1334     1
   1333   1335     1
   1335   1337     1
   1339   1346     1
   1339   1361     1
   1339   1356     1
   1339   1347     1
   1340   1345     1
   1340   1351     1
   1340   1353     1
   1340   1354     1
   1341   1342     1
   1341   1360     1
   1341   1359     1
   1341   1355     1
   1341   1353     1
   1341   1354     1
   1341   1344     1
   1342   1347     1
   1342   1352     1
   1342   1361     1
   1343   1358     1
   1343   1351     1
   1343   1359     1
   1344   1352     1
   1344   1346     1
   1345   1348     1
   1345   1357     1
   1345   1347     1
   1345   1352     1
   1345   1349     1
   1345   1346     1
   1346   1362     1
   1346   1351     1
   1346   1360     1
   1346   1359     1
   1347   1358     1
   1347   1362     1
   1349   1359     1
   1350   1359     1
   1353   1356     1
   1353   1357     1
   1354   1356     1
   1354   1357     1
   1357   1358     1
   1357   1359     1
   1359   1361     1
   1363   1369     1
   1363   1370     1
   1364   1367     1
   1364   1366     1
   1364   1368     1
   1366   1371     1
   1366   1369     1
   1366   1370     1
   1367   1381     1
   1367   1382     1
   1367   1374     1
   1367   1376     1
   1368   1371     1
   1368   1369     1
   1368   1370     1
   1369   1372     1
   1369   1373     1
   1370   1372     1
   1370   1373     1
   1371   1384     1
   1371   1385     1
   1371   1377     1
   1371   1378     1
   1372   1374     1
   1372   1376     1
   1373   1381     1
   1373   1382     1
   1374   1379     1
   1374   1377     1
   1374   1378     1
   1375   1401     1
   1376   1379     1
   1376   1377     1
   1376   1378     1
   1377   1380     1
   1377   1411     1
   1378   1380     1
   1378   1411     1
   1379   1394     1
   1380   1401     1
   1381   1386     1
   1381   1384     1
   1381   1385     1
   1382   1386     1
   1382   1384     1
   1382   1385     1
   1383   1425     1
   1384   1387     1
   1384   1435     1
   1385   1387     1
   1385   1435     1
   1386   1418     1
   1387   1425     1
   1388   1395     1
   1388   1410     1
   1388   1405     1
   1388   1396     1
   1389   1402     1
   1389   1403     1
   1389   1394     1
   1389   1400     1
   1390   1391     1
   1390   1409     1
   1390   1408     1
   1390   1404     1
   1390   1402     1
   1390   1403     1
   1390   1393     1
   1391   1410     1
   1391   1396     1
   1391   1401     1
   1392   1408     1
   1392   1400     1
   1392   1407     1
   1393   1395     1
   1393   1401     1
   1394   1398     1
   1394   1395     1
   1394   1397     1
   1394   1406     1
   1394   1396     1
   1394   1401     1
   1395   1409     1
   1395   1408     1
   1395   1411     1
   1395   1400     1
   1396   1411     1
   1396   1407     1
   1398   1408     1
   1399   1408     1
   1402   1406     1
   1402   1405     1
   1403   1406     1
   1403   1405     1
   1406   1408     1
   1406   1407     1
   1408   1410     1
   1412   1419     1
   1412   1434     1
   1412   1429     1
   1412   1420     1
   1413   1426     1
   1413   1427     1
   1413   1418     1
   1413   1424     1
   1414   1415     1
   1414   1433     1
   1414   1432     1
   1414   1428     1
   1414   1426     1
   1414   1427     1
   1414   1417     1
   1415   1434     1
   1415   1420     1
   1415   1425     1
   1416   1432     1
   1416   1424     1
   1416   1431     1
   1417   1419     1
   1417   1425     1
   1418   1422     1
   1418   1419     1
   1418   1421     1
   1418   1430     1
   1418   1420     1
   1418   1425     1
   1419   1433     1
   1419   1432     1
   1419   1435     1
   1419   1424     1
   1420   1435     1
   1420   1431     1
   1422   1432     1
   1423   1432     1
   1426   1430     1
   1426   1429     1
   1427   1430     1
   1427   1429     1
   1430   1432     1
   1430   1431     1
   1432   1434     1
   1436   1442     1
   1436   1443     1
   1437   1440     1
   1437   1439     1
   1437   1441     1
   1439   1444     1
   1439   1442     1
   1439   1443     1
   1440   1454     1
   1440   1455     1
   1440   1447     1
   1440   1449     1
   1441   1444     1
   1441   1442     1
   1441   1443     1
   1442   1445     1
   1442   1446     1
   1443   1445     1
   1443   1446     1
   1444   1457     1
   1444   1458     1
   1444   1450     1
   1444   1451     1
   1445   1447     1
   1445   1449     1
   1446   1454     1
   1446   1455     1
   1447   1452     1
   1447   1450     1
   1447   1451     1
   1448   1474     1
   1449   1452     1
   1449   1450     1
   1449   1451     1
   1450   1453     1
   1450   1484     1
   1451   1453     1
   1451   1484     1
   1452   1467     1
   1453   1474     1
   1454   1459     1
   1454   1457     1
   1454   1458     1
   1455   1459     1
   1455   1457     1
   1455   1458     1
   1456   1498     1
   1457   1460     1
   1457   1508     1
   1458   1460     1
   1458   1508     1
   1459   1491     1
   1460   1498     1
   1461   1468     1
   1461   1483     1
   1461   1478     1
   1461   1469     1
   1462   1467     1
   1462   1473     1
   1462   1475     1
   1462   1476     1
   1463   1464     1
   1463   1482     1
   1463   1481     1
   1463   1477     1
   1463   1475     1
   1463   1476     1
   1463   1466     1
   1464   1469     1
   1464   1474     1
   1464   1483     1
   1465   1480     1
   1465   1473     1
   1465   1481     1
   1466   1474     1
   1466   1468     1
   1467   1470     1
   1467   1479     1
   1467   1469     1
   1467   1474     1
   1467   1471     1
   1467   1468     1
   1468   1484     1
   1468   1473     1
   1468   1482     1
   1468   1481     1
   1469   1480     1
   1469   1484     1
   1471   1481     1
   1472   1481     1
   1475   1478     1
   1475   1479     1
   1476   1478     1
   1476   1479     1
   1479   1480     1
   1479   1481     1
   1481   1483     1
   1485   1492     1
   1485   1507     1
   1485   1502     1
   1485   1493     1
   1486   1491     1
   1486   1497     1
   1486   1499     1
   1486   1500     1
   1487   1488     1
   1487   1506     1
   1487   1505     1
   1487   1501     1
   1487   1499     1
   1487   1500     1
   1487   1490     1
   1488   1493     1
   1488   1498     1
   1488   1507     1
   1489   1504     1
   1489   1497     1
   1489   1505     1
   1490   1498     1
   1490   1492     1
   1491   1494     1
   1491   1503     1
   1491   1493     1
   1491   1498     1
   1491   1495     1
   1491   1492     1
   1492   1508     1
   1492   1497     1
   1492   1506     1
   1492   1505     1
   1493   1504     1
   1493   1508     1
   1495   1505     1
   1496   1505     1
   1499   1502     1
   1499   1503     1
   1500   1502     1
   1500   1503     1
   1503   1504     1
   1503   1505     1
   1505   1507     1

[ angles ]
;    ai     aj     ak funct         c0         c1         c2         c3
      1      4      7     1   111.0400475 552.288000
      1      8      9     1   112.3500484 533.878400
      1      8     12     1   112.3500484 533.878400
      4      1      8     1   111.0400475 552.288000
      4      7     15     1   112.3500484 533.878400
      4      7     18     1   112.3500484 533.878400
      7     15     21     1   111.0400475 552.288000
      7     18     24     1   111.0400475 552.288000
      8      9     30     1   111.0400475 552.288000
      8     12     27     1   111.0400475 552.288000
      9      8     12     1   112.3500484 533.878400
      9     30     34     1   111.0400475 529.694400
     12     27     33     1   111.0400475 529.694400
     15      7     18     1   112.3500484 533.878400
     15     21     35     1   111.0400475 529.694400
     18     24     36     1   111.0400475 529.694400
     21     35     38     1   123.2000528 564.003200
     21     35    114     1   115.1800491 558.982400
     24     36     39     1   123.2000528 564.003200
     24     36    139     1   115.1800491 558.982400
     27     33     37     1   123.2000528 564.003200
     27     33     64     1   115.1800491 558.982400
     30     34     40     1   123.2000528 564.003200
     30     34     89     1   115.1800491 558.982400
     33     64     44     1   120.6900519 530.531200
     34     89     69     1   120.6900519 530.531200
     35    114     94     1   120.6900519 530.531200
     36    139    119     1   120.6900519 530.531200
     37     33     64     1   123.0500530 620.905600
     38     35    114     1   123.0500530 620.905600
     39     36    139     1   123.0500530 620.905600
     40     34     89     1   123.0500530 620.905600
     41     44     64     1   111.6100477 551.451200
     41     47     48     1   112.3500484 533.878400
     41     47     51     1   112.3500484 533.878400
     44     41     47     1   111.0400475 552.288000
     47     48     57     1   111.0400475 552.288000
     47     51     54     1   111.0400475 552.288000
     48     47     51     1   112.3500484 533.878400
     48     57     61     1   111.0400475 529.694400
     51     54     60     1   111.0400475 529.694400
     54     60     62     1   123.2000528 564.003200
     54     60    164     1   115.1800491 558.982400
     57     61     63     1   123.2000528 564.003200
     57     61    189     1   115.1800491 558.982400
     60    164    144     1   120.6900519 530.531200
     61    189    169     1   120.6900519 530.531200
     62     60    164     1   123.0500530 620.905600
     63     61    189     1   123.0500530 620.905600
     66     69     89     1   111.6100477 551.451200
     66     72     73     1   112.3500484 533.878400
     66     72     76     1   112.3500484 533.878400
     69     66     72     1   111.0400475 552.288000
     72     73     82     1   111.0400475 552.288000
     72     76     79     1   111.0400475 552.288000
     73     72     76     1   112.3500484 533.878400
     73     82     86     1   111.0400475 529.694400
     76     79     85     1   111.0400475 529.694400
     79     85     87     1   123.2000528 564.003200
     79     85    214     1   115.1800491 558.982400
     82     86     88     1   123.2000528 564.003200
     82     86    239     1   115.1800491 558.982400
     85    214    194     1   120.6900519 530.531200
     86    239    219     1   120.6900519 530.531200
     87     85    214     1   123.0500530 620.905600
     88     86    239     1   123.0500530 620.905600
     91     94    114     1   111.6100477 551.451200
     91     97     98     1   112.3500484 533.878400
     91     97    101     1   112.3500484 533.878400
     94     91     97     1   111.0400475 552.288000
     97     98    107     1   111.0400475 552.288000
     97    101    104     1   111.0400475 552.288000
     98     97    101     1   112.3500484 533.878400
     98    107    111     1   111.0400475 529.694400
    101    104    110     1   111.0400475 529.694400
    104    110    112     1   123.2000528 564.003200
    104    110    264     1   115.1800491 558.982400
    107    111    113     1   123.2000528 564.003200
    107    111    289     1   115.1800491 558.982400
    110    264    244     1   120.6900519 530.531200
    111    289    269     1   120.6900519 530.531200
    112    110    264     1   123.0500530 620.905600
    113    111    289     1   123.0500530 620.905600
    116    119    139     1   111.6100477 551.451200
    116    122    123     1   112.3500484 533.878400
    116    122    126     1   112.3500484 533.878400
    119    116    122     1   111.0400475 552.288000
    122    123    132     1   111.0400475 552.288000
    122    126    129     1   111.0400475 552.288000
    123    122    126     1   112.3500484 533.878400
    123    132    136     1   111.0400475 529.694400
    126    129    135     1   111.0400475 529.694400
    129    135    137     1   123.2000528 564.003200
    129    135    314     1   115.1800491 558.982400
    132    136    138     1   123.2000528 564.003200
    132    136    339     1   115.1800491 558.982400
    135    314    294     1   120.6900519 530.531200
    136    339    319     1   120.6900519 530.531200
    137    135    314     1   123.0500530 620.905600
    138    136    339     1   123.0500530 620.905600
    141    144    164     1   111.6100477 551.451200
    141    147    148     1   112.3500484 533.878400
    141    147    151     1   112.3500484 533.878400
    144    141    147     1   111.0400475 552.288000
    147    148    157     1   111.0400475 552.288000
    147    151    154     1   111.0400475 552.288000
    148    147    151     1   112.3500484 533.878400
    148    157    161     1   111.0400475 529.694400
    151    154    160     1   111.0400475 529.694400
    154    160    341     1   115.1800491 558.982400
    154    160    162     1   123.2000528 564.003200
    157    161    163     1   123.2000528 564.003200
    157    161    414     1   115.1800491 558.982400
    160    341    343     1   120.6900519 530.531200
    161    414    416     1   120.6900519 530.531200
    162    160    341     1   123.0500530 620.905600
    163    161    414     1   123.0500530 620.905600
    166    169    189     1   111.6100477 551.451200
    166    172    173     1   112.3500484 533.878400
    166    172    176     1   112.3500484 533.878400
    169    166    172     1   111.0400475 552.288000
    172    173    182     1   111.0400475 552.288000
    172    176    179     1   111.0400475 552.288000
    173    172    176     1   112.3500484 533.878400
    173    182    186     1   111.0400475 529.694400
    176    179    185     1   111.0400475 529.694400
    179    185    487     1   115.1800491 558.982400
    179    185    187     1   123.2000528 564.003200
    182    186    188     1   123.2000528 564.003200
    182    186    560     1   115.1800491 558.982400
    185    487    489     1   120.6900519 530.531200
    186    560    562     1   120.6900519 530.531200
    187    185    487     1   123.0500530 620.905600
    188    186    560     1   123.0500530 620.905600
    191    194    214     1   111.6100477 551.451200
    191    197    198     1   112.3500484 533.878400
    191    197    201     1   112.3500484 533.878400
    194    191    197     1   111.0400475 552.288000
    197    198    207     1   111.0400475 552.288000
    197    201    204     1   111.0400475 552.288000
    198    197    201     1   112.3500484 533.878400
    198    207    211     1   111.0400475 529.694400
    201    204    210     1   111.0400475 529.694400
    204    210    633     1   115.1800491 558.982400
    204    210    212     1   123.2000528 564.003200
    207    211    213     1   123.2000528 564.003200
    207    211    706     1   115.1800491 558.982400
    210    633    635     1   120.6900519 530.531200
    211    706    708     1   120.6900519 530.531200
    212    210    633     1   123.0500530 620.905600
    213    211    706     1   123.0500530 620.905600
    216    219    239     1   111.6100477 551.451200
    216    222    223     1   112.3500484 533.878400
    216    222    226     1   112.3500484 533.878400
    219    216    222     1   111.0400475 552.288000
    222    223    232     1   111.0400475 552.288000
    222    226    229     1   111.0400475 552.288000
    223    222    226     1   112.3500484 533.878400
    223    232    236     1   111.0400475 529.694400
    226    229    235     1   111.0400475 529.694400
    229    235    779     1   115.1800491 558.982400
    229    235    237     1   123.2000528 564.003200
    232    236    238     1   123.2000528 564.003200
    232    236    852     1   115.1800491 558.982400
    235    779    781     1   120.6900519 530.531200
    236    852    854     1   120.6900519 530.531200
    237    235    779     1   123.0500530 620.905600
    238    236    852     1   123.0500530 620.905600
    241    244    264     1   111.6100477 551.451200
    241    247    248     1   112.3500484 533.878400
    241    247    251     1   112.3500484 533.878400
    244    241    247     1   111.0400475 552.288000
    247    248    257     1   111.0400475 552.288000
    247    251    254     1   111.0400475 552.288000
    248    247    251     1   112.3500484 533.878400
    248    257    261     1   111.0400475 529.694400
    251    254    260     1   111.0400475 529.694400
    254    260    925     1   115.1800491 558.982400
    254    260    262     1   123.2000528 564.003200
    257    261    263     1   123.2000528 564.003200
    257    261    998     1   115.1800491 558.982400
    260    925    927     1   120.6900519 530.531200
    261    998   1000     1   120.6900519 530.531200
    262    260    925     1   123.0500530 620.905600
    263    261    998     1   123.0500530 620.905600
    266    269    289     1   111.6100477 551.451200
    266    272    273     1   112.3500484 533.878400
    266    272    276     1   112.3500484 533.878400
    269    266    272     1   111.0400475 552.288000
    272    273    282     1   111.0400475 552.288000
    272    276    279     1   111.0400475 552.288000
    273    272    276     1   112.3500484 533.878400
    273    282    286     1   111.0400475 529.694400
    276    279    285     1   111.0400475 529.694400
    279    285   1071     1   115.1800491 558.982400
    279    285    287     1   123.2000528 564.003200
    282    286    288     1   123.2000528 564.003200
    282    286   1144     1   115.1800491 558.982400
    285   1071   1073     1   120.6900519 530.531200
    286   1144   1146     1   120.6900519 530.531200
    287    285   1071     1   123.0500530 620.905600
    288    286   1144     1   123.0500530 620.905600
    291    294    314     1   111.6100477 551.451200
    291    297    298     1   112.3500484 533.878400
    291    297    301     1   112.3500484 533.878400
    294    291    297     1   111.0400475 552.288000
    297    298    307     1   111.0400475 552.288000
    297    301    304     1   111.0400475 552.288000
    298    297    301     1   112.3500484 533.878400
    298    307    311     1   111.0400475 529.694400
    301    304    310     1   111.0400475 529.694400
    304    310   1217     1   115.1800491 558.982400
    304    310    312     1   123.2000528 564.003200
    307    311    313     1   123.2000528 564.003200
    307    311   1290     1   115.1800491 558.982400
    310   1217   1219     1   120.6900519 530.531200
    311   1290   1292     1   120.6900519 530.531200
    312    310   1217     1   123.0500530 620.905600
    313    311   1290     1   123.0500530 620.905600
    316    319    339     1   111.6100477 551.451200
    316    322    323     1   112.3500484 533.878400
    316    322    326     1   112.3500484 533.878400
    319    316    322     1   111.0400475 552.288000
    322    323    332     1   111.0400475 552.288000
    322    326    329     1   111.0400475 552.288000
    323    322    326     1   112.3500484 533.878400
    323    332    336     1   111.0400475 529.694400
    326    329    335     1   111.0400475 529.694400
    329    335   1363     1   115.1800491 558.982400
    329    335    337     1   123.2000528 564.003200
    332    336   1436     1   115.1800491 558.982400
    332    336    338     1   123.2000528 564.003200
    335   1363   1365     1   120.6900519 530.531200
    336   1436   1438     1   120.6900519 530.531200
    337    335   1363     1   123.0500530 620.905600
    338    336   1436     1   123.0500530 620.905600
    341    343    345     1   111.6100477 551.451200
    343    345    349     1   111.0400475 552.288000
    345    349    350     1   112.3500484 533.878400
    345    349    351     1   112.3500484 533.878400
    349    350    361     1   111.0400475 552.288000
    349    351    353     1   111.0400475 552.288000
    350    349    351     1   112.3500484 533.878400
    350    361    364     1   111.0400475 529.694400
    351    353    357     1   111.0400475 529.694400
    353    357    358     1   123.2000528 564.003200
    353    357    389     1   112.2600482 538.062400
    357    389    370     1   118.5150508 540.957728
    358    357    389     1   118.8300510 581.576000
    361    364    365     1   123.2000528 564.003200
    361    364    413     1   112.2600482 538.062400
    364    413    394     1   118.5150508 540.957728
    365    364    413     1   118.8300510 581.576000
    366    367    369     1   111.5100476 526.347200
    366    367    387     1   110.1900474 564.840000
    366    377    382     1   110.1900474 564.840000
    366    384    371     1   112.4800480 524.673600
    367    366    377     1   111.5100476 526.347200
    367    366    384     1   107.9700462 569.024000
    367    369    370     1   111.5100476 526.347200
    367    369    376     1   110.1900474 564.840000
    369    367    387     1   110.1900474 564.840000
    369    370    371     1   111.5100476 526.347200
    369    370    389     1   111.0400475 552.288000
    370    369    376     1   110.1900474 564.840000
    370    371    375     1   110.1900474 564.840000
    370    371    384     1   107.9700462 569.024000
    371    370    389     1   111.0400475 552.288000
    375    371    384     1   109.3800466 607.516800
    377    366    384     1   107.9700462 569.024000
    390    391    393     1   111.5100476 526.347200
    390    391    411     1   110.1900474 564.840000
    390    401    406     1   110.1900474 564.840000
    390    408    395     1   112.4800480 524.673600
    391    390    401     1   111.5100476 526.347200
    391    390    408     1   107.9700462 569.024000
    391    393    394     1   111.5100476 526.347200
    391    393    400     1   110.1900474 564.840000
    393    391    411     1   110.1900474 564.840000
    393    394    395     1   111.5100476 526.347200
    393    394    413     1   111.0400475 552.288000
    394    393    400     1   110.1900474 564.840000
    394    395    399     1   110.1900474 564.840000
    394    395    408     1   107.9700462 569.024000
    395    394    413     1   111.0400475 552.288000
    399    395    408     1   109.3800466 607.516800
    401    390    408     1   107.9700462 569.024000
    414    416    418     1   111.6100477 551.451200
    416    418    422     1   111.0400475 552.288000
    418    422    423     1   112.3500484 533.878400
    418    422    424     1   112.3500484 533.878400
    422    423    434     1   111.0400475 552.288000
    422    424    426     1   111.0400475 552.288000
    423    434    437     1   111.0400475 529.694400
    423    422    424     1   112.3500484 533.878400
    424    426    430     1   111.0400475 529.694400
    426    430    431     1   123.2000528 564.003200
    426    430    462     1   112.2600482 538.062400
    430    462    443     1   118.5150508 540.957728
    431    430    462     1   118.8300510 581.576000
    434    437    438     1   123.2000528 564.003200
    434    437    486     1   112.2600482 538.062400
    437    486    467     1   118.5150508 540.957728
    438    437    486     1   118.8300510 581.576000
    439    440    442     1   111.5100476 526.347200
    439    440    460     1   110.1900474 564.840000
    439    450    455     1   110.1900474 564.840000
    439    457    444     1   112.4800480 524.673600
    440    442    443     1   111.5100476 526.347200
    440    442    449     1   110.1900474 564.840000
    440    439    450     1   111.5100476 526.347200
    440    439    457     1   107.9700462 569.024000
    442    443    444     1   111.5100476 526.347200
    442    443    462     1   111.0400475 552.288000
    442    440    460     1   110.1900474 564.840000
    443    444    448     1   110.1900474 564.840000
    443    444    457     1   107.9700462 569.024000
    443    442    449     1   110.1900474 564.840000
    444    443    462     1   111.0400475 552.288000
    448    444    457     1   109.3800466 607.516800
    450    439    457     1   107.9700462 569.024000
    463    464    466     1   111.5100476 526.347200
    463    464    484     1   110.1900474 564.840000
    463    474    479     1   110.1900474 564.840000
    463    481    468     1   112.4800480 524.673600
    464    466    467     1   111.5100476 526.347200
    464    466    473     1   110.1900474 564.840000
    464    463    474     1   111.5100476 526.347200
    464    463    481     1   107.9700462 569.024000
    466    467    468     1   111.5100476 526.347200
    466    467    486     1   111.0400475 552.288000
    466    464    484     1   110.1900474 564.840000
    467    468    472     1   110.1900474 564.840000
    467    468    481     1   107.9700462 569.024000
    467    466    473     1   110.1900474 564.840000
    468    467    486     1   111.0400475 552.288000
    472    468    481     1   109.3800466 607.516800
    474    463    481     1   107.9700462 569.024000
    487    489    491     1   111.6100477 551.451200
    489    491    495     1   111.0400475 552.288000
    491    495    496     1   112.3500484 533.878400
    491    495    497     1   112.3500484 533.878400
    495    496    507     1   111.0400475 552.288000
    495    497    499     1   111.0400475 552.288000
    496    495    497     1   112.3500484 533.878400
    496    507    510     1   111.0400475 529.694400
    497    499    503     1   111.0400475 529.694400
    499    503    504     1   123.2000528 564.003200
    499    503    535     1   112.2600482 538.062400
    503    535    516     1   118.5150508 540.957728
    504    503    535     1   118.8300510 581.576000
    507    510    511     1   123.2000528 564.003200
    507    510    559     1   112.2600482 538.062400
    510    559    540     1   118.5150508 540.957728
    511    510    559     1   118.8300510 581.576000
    512    513    515     1   111.5100476 526.347200
    512    513    533     1   110.1900474 564.840000
    512    523    528     1   110.1900474 564.840000
    512    530    517     1   112.4800480 524.673600
    513    512    523     1   111.5100476 526.347200
    513    512    530     1   107.9700462 569.024000
    513    515    516     1   111.5100476 526.347200
    513    515    522     1   110.1900474 564.840000
    515    513    533     1   110.1900474 564.840000
    515    516    517     1   111.5100476 526.347200
    515    516    535     1   111.0400475 552.288000
    516    515    522     1   110.1900474 564.840000
    516    517    521     1   110.1900474 564.840000
    516    517    530     1   107.9700462 569.024000
    517    516    535     1   111.0400475 552.288000
    521    517    530     1   109.3800466 607.516800
    523    512    530     1   107.9700462 569.024000
    536    537    539     1   111.5100476 526.347200
    536    537    557     1   110.1900474 564.840000
    536    547    552     1   110.1900474 564.840000
    536    554    541     1   112.4800480 524.673600
    537    536    547     1   111.5100476 526.347200
    537    536    554     1   107.9700462 569.024000
    537    539    540     1   111.5100476 526.347200
    537    539    546     1   110.1900474 564.840000
    539    537    557     1   110.1900474 564.840000
    539    540    541     1   111.5100476 526.347200
    539    540    559     1   111.0400475 552.288000
    540    539    546     1   110.1900474 564.840000
    540    541    545     1   110.1900474 564.840000
    540    541    554     1   107.9700462 569.024000
    541    540    559     1   111.0400475 552.288000
    545    541    554     1   109.3800466 607.516800
    547    536    554     1   107.9700462 569.024000
    560    562    564     1   111.6100477 551.451200
    562    564    568     1   111.0400475 552.288000
    564    568    569     1   112.3500484 533.878400
    564    568    570     1   112.3500484 533.878400
    568    569    580     1   111.0400475 552.288000
    568    570    572     1   111.0400475 552.288000
    569    580    583     1   111.0400475 529.694400
    569    568    570     1   112.3500484 533.878400
    570    572    576     1   111.0400475 529.694400
    572    576    577     1   123.2000528 564.003200
    572    576    608     1   112.2600482 538.062400
    576    608    589     1   118.5150508 540.957728
    577    576    608     1   118.8300510 581.576000
    580    583    584     1   123.2000528 564.003200
    580    583    632     1   112.2600482 538.062400
    583    632    613     1   118.5150508 540.957728
    584    583    632     1   118.8300510 581.576000
    585    586    588     1   111.5100476 526.347200
    585    586    606     1   110.1900474 564.840000
    585    596    601     1   110.1900474 564.840000
    585    603    590     1   112.4800480 524.673600
    586    588    589     1   111.5100476 526.347200
    586    588    595     1   110.1900474 564.840000
    586    585    596     1   111.5100476 526.347200
    586    585    603     1   107.9700462 569.024000
    588    589    590     1   111.5100476 526.347200
    588    589    608     1   111.0400475 552.288000
    588    586    606     1   110.1900474 564.840000
    589    590    594     1   110.1900474 564.840000
    589    590    603     1   107.9700462 569.024000
    589    588    595     1   110.1900474 564.840000
    590    589    608     1   111.0400475 552.288000
    594    590    603     1   109.3800466 607.516800
    596    585    603     1   107.9700462 569.024000
    609    610    612     1   111.5100476 526.347200
    609    610    630     1   110.1900474 564.840000
    609    620    625     1   110.1900474 564.840000
    609    627    614     1   112.4800480 524.673600
    610    612    613     1   111.5100476 526.347200
    610    612    619     1   110.1900474 564.840000
    610    609    620     1   111.5100476 526.347200
    610    609    627     1   107.9700462 569.024000
    612    613    614     1   111.5100476 526.347200
    612    613    632     1   111.0400475 552.288000
    612    610    630     1   110.1900474 564.840000
    613    614    618     1   110.1900474 564.840000
    613    614    627     1   107.9700462 569.024000
    613    612    619     1   110.1900474 564.840000
    614    613    632     1   111.0400475 552.288000
    618    614    627     1   109.3800466 607.516800
    620    609    627     1   107.9700462 569.024000
    633    635    637     1   111.6100477 551.451200
    635    637    641     1   111.0400475 552.288000
    637    641    642     1   112.3500484 533.878400
    637    641    643     1   112.3500484 533.878400
    641    642    653     1   111.0400475 552.288000
    641    643    645     1   111.0400475 552.288000
    642    641    643     1   112.3500484 533.878400
    642    653    656     1   111.0400475 529.694400
    643    645    649     1   111.0400475 529.694400
    645    649    650     1   123.2000528 564.003200
    645    649    681     1   112.2600482 538.062400
    649    681    662     1   118.5150508 540.957728
    650    649    681     1   118.8300510 581.576000
    653    656    657     1   123.2000528 564.003200
    653    656    705     1   112.2600482 538.062400
    656    705    686     1   118.5150508 540.957728
    657    656    705     1   118.8300510 581.576000
    658    659    661     1   111.5100476 526.347200
    658    659    679     1   110.1900474 564.840000
    658    669    674     1   110.1900474 564.840000
    658    676    663     1   112.4800480 524.673600
    659    658    669     1   111.5100476 526.347200
    659    658    676     1   107.9700462 569.024000
    659    661    662     1   111.5100476 526.347200
    659    661    668     1   110.1900474 564.840000
    661    659    679     1   110.1900474 564.840000
    661    662    663     1   111.5100476 526.347200
    661    662    681     1   111.0400475 552.288000
    662    661    668     1   110.1900474 564.840000
    662    663    667     1   110.1900474 564.840000
    662    663    676     1   107.9700462 569.024000
    663    662    681     1   111.0400475 552.288000
    667    663    676     1   109.3800466 607.516800
    669    658    676     1   107.9700462 569.024000
    682    683    685     1   111.5100476 526.347200
    682    683    703     1   110.1900474 564.840000
    682    693    698     1   110.1900474 564.840000
    682    700    687     1   112.4800480 524.673600
    683    682    693     1   111.5100476 526.347200
    683    682    700     1   107.9700462 569.024000
    683    685    686     1   111.5100476 526.347200
    683    685    692     1   110.1900474 564.840000
    685    683    703     1   110.1900474 564.840000
    685    686    687     1   111.5100476 526.347200
    685    686    705     1   111.0400475 552.288000
    686    685    692     1   110.1900474 564.840000
    686    687    691     1   110.1900474 564.840000
    686    687    700     1   107.9700462 569.024000
    687    686    705     1   111.0400475 552.288000
    691    687    700     1   109.3800466 607.516800
    693    682    700     1   107.9700462 569.024000
    706    708    710     1   111.6100477 551.451200
    708    710    714     1   111.0400475 552.288000
    710    714    715     1   112.3500484 533.878400
    710    714    716     1   112.3500484 533.878400
    714    715    726     1   111.0400475 552.288000
    714    716    718     1   111.0400475 552.288000
    715    726    729     1   111.0400475 529.694400
    715    714    716     1   112.3500484 533.878400
    716    718    722     1   111.0400475 529.694400
    718    722    723     1   123.2000528 564.003200
    718    722    754     1   112.2600482 538.062400
    722    754    735     1   118.5150508 540.957728
    723    722    754     1   118.8300510 581.576000
    726    729    730     1   123.2000528 564.003200
    726    729    778     1   112.2600482 538.062400
    729    778    759     1   118.5150508 540.957728
    730    729    778     1   118.8300510 581.576000
    731    732    734     1   111.5100476 526.347200
    731    732    752     1   110.1900474 564.840000
    731    742    747     1   110.1900474 564.840000
    731    749    736     1   112.4800480 524.673600
    732    734    735     1   111.5100476 526.347200
    732    734    741     1   110.1900474 564.840000
    732    731    742     1   111.5100476 526.347200
    732    731    749     1   107.9700462 569.024000
    734    735    736     1   111.5100476 526.347200
    734    735    754     1   111.0400475 552.288000
    734    732    752     1   110.1900474 564.840000
    735    736    740     1   110.1900474 564.840000
    735    736    749     1   107.9700462 569.024000
    735    734    741     1   110.1900474 564.840000
    736    735    754     1   111.0400475 552.288000
    740    736    749     1   109.3800466 607.516800
    742    731    749     1   107.9700462 569.024000
    755    756    758     1   111.5100476 526.347200
    755    756    776     1   110.1900474 564.840000
    755    766    771     1   110.1900474 564.840000
    755    773    760     1   112.4800480 524.673600
    756    758    759     1   111.5100476 526.347200
    756    758    765     1   110.1900474 564.840000
    756    755    766     1   111.5100476 526.347200
    756    755    773     1   107.9700462 569.024000
    758    759    760     1   111.5100476 526.347200
    758    759    778     1   111.0400475 552.288000
    758    756    776     1   110.1900474 564.840000
    759    760    764     1   110.1900474 564.840000
    759    760    773     1   107.9700462 569.024000
    759    758    765     1   110.1900474 564.840000
    760    759    778     1   111.0400475 552.288000
    764    760    773     1   109.3800466 607.516800
    766    755    773     1   107.9700462 569.024000
    779    781    783     1   111.6100477 551.451200
    781    783    787     1   111.0400475 552.288000
    783    787    788     1   112.3500484 533.878400
    783    787    789     1   112.3500484 533.878400
    787    788    799     1   111.0400475 552.288000
    787    789    791     1   111.0400475 552.288000
    788    787    789     1   112.3500484 533.878400
    788    799    802     1   111.0400475 529.694400
    789    791    795     1   111.0400475 529.694400
    791    795    796     1   123.2000528 564.003200
    791    795    827     1   112.2600482 538.062400
    795    827    808     1   118.5150508 540.957728
    796    795    827     1   118.8300510 581.576000
    799    802    803     1   123.2000528 564.003200
    799    802    851     1   112.2600482 538.062400
    802    851    832     1   118.5150508 540.957728
    803    802    851     1   118.8300510 581.576000
    804    805    807     1   111.5100476 526.347200
    804    805    825     1   110.1900474 564.840000
    804    815    820     1   110.1900474 564.840000
    804    822    809     1   112.4800480 524.673600
    805    804    815     1   111.5100476 526.347200
    805    804    822     1   107.9700462 569.024000
    805    807    808     1   111.5100476 526.347200
    805    807    814     1   110.1900474 564.840000
    807    805    825     1   110.1900474 564.840000
    807    808    809     1   111.5100476 526.347200
    807    808    827     1   111.0400475 552.288000
    808    807    814     1   110.1900474 564.840000
    808    809    813     1   110.1900474 564.840000
    808    809    822     1   107.9700462 569.024000
    809    808    827     1   111.0400475 552.288000
    813    809    822     1   109.3800466 607.516800
    815    804    822     1   107.9700462 569.024000
    828    829    831     1   111.5100476 526.347200
    828    829    849     1   110.1900474 564.840000
    828    839    844     1   110.1900474 564.840000
    828    846    833     1   112.4800480 524.673600
    829    828    839     1   111.5100476 526.347200
    829    828    846     1   107.9700462 569.024000
    829    831    832     1   111.5100476 526.347200
    829    831    838     1   110.1900474 564.840000
    831    829    849     1   110.1900474 564.840000
    831    832    833     1   111.5100476 526.347200
    831    832    851     1   111.0400475 552.288000
    832    831    838     1   110.1900474 564.840000
    832    833    837     1   110.1900474 564.840000
    832    833    846     1   107.9700462 569.024000
    833    832    851     1   111.0400475 552.288000
    837    833    846     1   109.3800466 607.516800
    839    828    846     1   107.9700462 569.024000
    852    854    856     1   111.6100477 551.451200
    854    856    860     1   111.0400475 552.288000
    856    860    861     1   112.3500484 533.878400
    856    860    862     1   112.3500484 533.878400
    860    861    872     1   111.0400475 552.288000
    860    862    864     1   111.0400475 552.288000
    861    872    875     1   111.0400475 529.694400
    861    860    862     1   112.3500484 533.878400
    862    864    868     1   111.0400475 529.694400
    864    868    869     1   123.2000528 564.003200
    864    868    900     1   112.2600482 538.062400
    868    900    881     1   118.5150508 540.957728
    869    868    900     1   118.8300510 581.576000
    872    875    876     1   123.2000528 564.003200
    872    875    924     1   112.2600482 538.062400
    875    924    905     1   118.5150508 540.957728
    876    875    924     1   118.8300510 581.576000
    877    878    880     1   111.5100476 526.347200
    877    878    898     1   110.1900474 564.840000
    877    888    893     1   110.1900474 564.840000
    877    895    882     1   112.4800480 524.673600
    878    880    881     1   111.5100476 526.347200
    878    880    887     1   110.1900474 564.840000
    878    877    888     1   111.5100476 526.347200
    878    877    895     1   107.9700462 569.024000
    880    881    882     1   111.5100476 526.347200
    880    881    900     1   111.0400475 552.288000
    880    878    898     1   110.1900474 564.840000
    881    882    886     1   110.1900474 564.840000
    881    882    895     1   107.9700462 569.024000
    881    880    887     1   110.1900474 564.840000
    882    881    900     1   111.0400475 552.288000
    886    882    895     1   109.3800466 607.516800
    888    877    895     1   107.9700462 569.024000
    901    902    904     1   111.5100476 526.347200
    901    902    922     1   110.1900474 564.840000
    901    912    917     1   110.1900474 564.840000
    901    919    906     1   112.4800480 524.673600
    902    904    905     1   111.5100476 526.347200
    902    904    911     1   110.1900474 564.840000
    902    901    912     1   111.5100476 526.347200
    902    901    919     1   107.9700462 569.024000
    904    905    906     1   111.5100476 526.347200
    904    905    924     1   111.0400475 552.288000
    904    902    922     1   110.1900474 564.840000
    905    906    910     1   110.1900474 564.840000
    905    906    919     1   107.9700462 569.024000
    905    904    911     1   110.1900474 564.840000
    906    905    924     1   111.0400475 552.288000
    910    906    919     1   109.3800466 607.516800
    912    901    919     1   107.9700462 569.024000
    925    927    929     1   111.6100477 551.451200
    927    929    933     1   111.0400475 552.288000
    929    933    934     1   112.3500484 533.878400
    929    933    935     1   112.3500484 533.878400
    933    934    945     1   111.0400475 552.288000
    933    935    937     1   111.0400475 552.288000
    934    933    935     1   112.3500484 533.878400
    934    945    948     1   111.0400475 529.694400
    935    937    941     1   111.0400475 529.694400
    937    941    942     1   123.2000528 564.003200
    937    941    973     1   112.2600482 538.062400
    941    973    954     1   118.5150508 540.957728
    942    941    973     1   118.8300510 581.576000
    945    948    949     1   123.2000528 564.003200
    945    948    997     1   112.2600482 538.062400
    948    997    978     1   118.5150508 540.957728
    949    948    997     1   118.8300510 581.576000
    950    951    953     1   111.5100476 526.347200
    950    951    971     1   110.1900474 564.840000
    950    961    966     1   110.1900474 564.840000
    950    968    955     1   112.4800480 524.673600
    951    950    961     1   111.5100476 526.347200
    951    950    968     1   107.9700462 569.024000
    951    953    954     1   111.5100476 526.347200
    951    953    960     1   110.1900474 564.840000
    953    951    971     1   110.1900474 564.840000
    953    954    955     1   111.5100476 526.347200
    953    954    973     1   111.0400475 552.288000
    954    953    960     1   110.1900474 564.840000
    954    955    959     1   110.1900474 564.840000
    954    955    968     1   107.9700462 569.024000
    955    954    973     1   111.0400475 552.288000
    959    955    968     1   109.3800466 607.516800
    961    950    968     1   107.9700462 569.024000
    974    975    977     1   111.5100476 526.347200
    974    975    995     1   110.1900474 564.840000
    974    985    990     1   110.1900474 564.840000
    974    992    979     1   112.4800480 524.673600
    975    974    985     1   111.5100476 526.347200
    975    974    992     1   107.9700462 569.024000
    975    977    978     1   111.5100476 526.347200
    975    977    984     1   110.1900474 564.840000
    977    975    995     1   110.1900474 564.840000
    977    978    979     1   111.5100476 526.347200
    977    978    997     1   111.0400475 552.288000
    978    977    984     1   110.1900474 564.840000
    978    979    983     1   110.1900474 564.840000
    978    979    992     1   107.9700462 569.024000
    979    978    997     1   111.0400475 552.288000
    983    979    992     1   109.3800466 607.516800
    985    974    992     1   107.9700462 569.024000
    998   1000   1002     1   111.6100477 551.451200
   1000   1002   1006     1   111.0400475 552.288000
   1002   1006   1007     1   112.3500484 533.878400
   1002   1006   1008     1   112.3500484 533.878400
   1006   1007   1018     1   111.0400475 552.288000
   1006   1008   1010     1   111.0400475 552.288000
   1007   1018   1021     1   111.0400475 529.694400
   1007   1006   1008     1   112.3500484 533.878400
   1008   1010   1014     1   111.0400475 529.694400
   1010   1014   1015     1   123.2000528 564.003200
   1010   1014   1046     1   112.2600482 538.062400
   1014   1046   1027     1   118.5150508 540.957728
   1015   1014   1046     1   118.8300510 581.576000
   1018   1021   1022     1   123.2000528 564.003200
   1018   1021   1070     1   112.2600482 538.062400
   1021   1070   1051     1   118.5150508 540.957728
   1022   1021   1070     1   118.8300510 581.576000
   1023   1024   1026     1   111.5100476 526.347200
   1023   1024   1044     1   110.1900474 564.840000
   1023   1034   1039     1   110.1900474 564.840000
   1023   1041   1028     1   112.4800480 524.673600
   1024   1026   1027     1   111.5100476 526.347200
   1024   1026   1033     1   110.1900474 564.840000
   1024   1023   1034     1   111.5100476 526.347200
   1024   1023   1041     1   107.9700462 569.024000
   1026   1027   1028     1   111.5100476 526.347200
   1026   1027   1046     1   111.0400475 552.288000
   1026   1024   1044     1   110.1900474 564.840000
   1027   1028   1032     1   110.1900474 564.840000
   1027   1028   1041     1   107.9700462 569.024000
   1027   1026   1033     1   110.1900474 564.840000
   1028   1027   1046     1   111.0400475 552.288000
   1032   1028   1041     1   109.3800466 607.516800
   1034   1023   1041     1   107.9700462 569.024000
   1047   1048   1050     1   111.5100476 526.347200
   1047   1048   1068     1   110.1900474 564.840000
   1047   1058   1063     1   110.1900474 564.840000
   1047   1065   1052     1   112.4800480 524.673600
   1048   1050   1051     1   111.5100476 526.347200
   1048   1050   1057     1   110.1900474 564.840000
   1048   1047   1058     1   111.5100476 526.347200
   1048   1047   1065     1   107.9700462 569.024000
   1050   1051   1052     1   111.5100476 526.347200
   1050   1051   1070     1   111.0400475 552.288000
   1050   1048   1068     1   110.1900474 564.840000
   1051   1052   1056     1   110.1900474 564.840000
   1051   1052   1065     1   107.9700462 569.024000
   1051   1050   1057     1   110.1900474 564.840000
   1052   1051   1070     1   111.0400475 552.288000
   1056   1052   1065     1   109.3800466 607.516800
   1058   1047   1065     1   107.9700462 569.024000
   1071   1073   1075     1   111.6100477 551.451200
   1073   1075   1079     1   111.0400475 552.288000
   1075   1079   1080     1   112.3500484 533.878400
   1075   1079   1081     1   112.3500484 533.878400
   1079   1080   1091     1   111.0400475 552.288000
   1079   1081   1083     1   111.0400475 552.288000
   1080   1079   1081     1   112.3500484 533.878400
   1080   1091   1094     1   111.0400475 529.694400
   1081   1083   1087     1   111.0400475 529.694400
   1083   1087   1088     1   123.2000528 564.003200
   1083   1087   1119     1   112.2600482 538.062400
   1087   1119   1100     1   118.5150508 540.957728
   1088   1087   1119     1   118.8300510 581.576000
   1091   1094   1095     1   123.2000528 564.003200
   1091   1094   1143     1   112.2600482 538.062400
   1094   1143   1124     1   118.5150508 540.957728
   1095   1094   1143     1   118.8300510 581.576000
   1096   1097   1099     1   111.5100476 526.347200
   1096   1097   1117     1   110.1900474 564.840000
   1096   1107   1112     1   110.1900474 564.840000
   1096   1114   1101     1   112.4800480 524.673600
   1097   1096   1107     1   111.5100476 526.347200
   1097   1096   1114     1   107.9700462 569.024000
   1097   1099   1100     1   111.5100476 526.347200
   1097   1099   1106     1   110.1900474 564.840000
   1099   1097   1117     1   110.1900474 564.840000
   1099   1100   1101     1   111.5100476 526.347200
   1099   1100   1119     1   111.0400475 552.288000
   1100   1099   1106     1   110.1900474 564.840000
   1100   1101   1105     1   110.1900474 564.840000
   1100   1101   1114     1   107.9700462 569.024000
   1101   1100   1119     1   111.0400475 552.288000
   1105   1101   1114     1   109.3800466 607.516800
   1107   1096   1114     1   107.9700462 569.024000
   1120   1121   1123     1   111.5100476 526.347200
   1120   1121   1141     1   110.1900474 564.840000
   1120   1131   1136     1   110.1900474 564.840000
   1120   1138   1125     1   112.4800480 524.673600
   1121   1120   1131     1   111.5100476 526.347200
   1121   1120   1138     1   107.9700462 569.024000
   1121   1123   1124     1   111.5100476 526.347200
   1121   1123   1130     1   110.1900474 564.840000
   1123   1121   1141     1   110.1900474 564.840000
   1123   1124   1125     1   111.5100476 526.347200
   1123   1124   1143     1   111.0400475 552.288000
   1124   1123   1130     1   110.1900474 564.840000
   1124   1125   1129     1   110.1900474 564.840000
   1124   1125   1138     1   107.9700462 569.024000
   1125   1124   1143     1   111.0400475 552.288000
   1129   1125   1138     1   109.3800466 607.516800
   1131   1120   1138     1   107.9700462 569.024000
   1144   1146   1148     1   111.6100477 551.451200
   1146   1148   1152     1   111.0400475 552.288000
   1148   1152   1153     1   112.3500484 533.878400
   1148   1152   1154     1   112.3500484 533.878400
   1152   1153   1164     1   111.0400475 552.288000
   1152   1154   1156     1   111.0400475 552.288000
   1153   1164   1167     1   111.0400475 529.694400
   1153   1152   1154     1   112.3500484 533.878400
   1154   1156   1160     1   111.0400475 529.694400
   1156   1160   1161     1   123.2000528 564.003200
   1156   1160   1192     1   112.2600482 538.062400
   1160   1192   1173     1   118.5150508 540.957728
   1161   1160   1192     1   118.8300510 581.576000
   1164   1167   1168     1   123.2000528 564.003200
   1164   1167   1216     1   112.2600482 538.062400
   1167   1216   1197     1   118.5150508 540.957728
   1168   1167   1216     1   118.8300510 581.576000
   1169   1170   1172     1   111.5100476 526.347200
   1169   1170   1190     1   110.1900474 564.840000
   1169   1180   1185     1   110.1900474 564.840000
   1169   1187   1174     1   112.4800480 524.673600
   1170   1172   1173     1   111.5100476 526.347200
   1170   1172   1179     1   110.1900474 564.840000
   1170   1169   1180     1   111.5100476 526.347200
   1170   1169   1187     1   107.9700462 569.024000
   1172   1173   1174     1   111.5100476 526.347200
   1172   1173   1192     1   111.0400475 552.288000
   1172   1170   1190     1   110.1900474 564.840000
   1173   1174   1178     1   110.1900474 564.840000
   1173   1174   1187     1   107.9700462 569.024000
   1173   1172   1179     1   110.1900474 564.840000
   1174   1173   1192     1   111.0400475 552.288000
   1178   1174   1187     1   109.3800466 607.516800
   1180   1169   1187     1   107.9700462 569.024000
   1193   1194   1196     1   111.5100476 526.347200
   1193   1194   1214     1   110.1900474 564.840000
   1193   1204   1209     1   110.1900474 564.840000
   1193   1211   1198     1   112.4800480 524.673600
   1194   1196   1197     1   111.5100476 526.347200
   1194   1196   1203     1   110.1900474 564.840000
   1194   1193   1204     1   111.5100476 526.347200
   1194   1193   1211     1   107.9700462 569.024000
   1196   1197   1198     1   111.5100476 526.347200
   1196   1197   1216     1   111.0400475 552.288000
   1196   1194   1214     1   110.1900474 564.840000
   1197   1198   1202     1   110.1900474 564.840000
   1197   1198   1211     1   107.9700462 569.024000
   1197   1196   1203     1   110.1900474 564.840000
   1198   1197   1216     1   111.0400475 552.288000
   1202   1198   1211     1   109.3800466 607.516800
   1204   1193   1211     1   107.9700462 569.024000
   1217   1219   1221     1   111.6100477 551.451200
   1219   1221   1225     1   111.0400475 552.288000
   1221   1225   1226     1   112.3500484 533.878400
   1221   1225   1227     1   112.3500484 533.878400
   1225   1226   1237     1   111.0400475 552.288000
   1225   1227   1229     1   111.0400475 552.288000
   1226   1225   1227     1   112.3500484 533.878400
   1226   1237   1240     1   111.0400475 529.694400
   1227   1229   1233     1   111.0400475 529.694400
   1229   1233   1234     1   123.2000528 564.003200
   1229   1233   1265     1   112.2600482 538.062400
   1233   1265   1246     1   118.5150508 540.957728
   1234   1233   1265     1   118.8300510 581.576000
   1237   1240   1241     1   123.2000528 564.003200
   1237   1240   1289     1   112.2600482 538.062400
   1240   1289   1270     1   118.5150508 540.957728
   1241   1240   1289     1   118.8300510 581.576000
   1242   1243   1245     1   111.5100476 526.347200
   1242   1243   1263     1   110.1900474 564.840000
   1242   1253   1258     1   110.1900474 564.840000
   1242   1260   1247     1   112.4800480 524.673600
   1243   1242   1253     1   111.5100476 526.347200
   1243   1242   1260     1   107.9700462 569.024000
   1243   1245   1246     1   111.5100476 526.347200
   1243   1245   1252     1   110.1900474 564.840000
   1245   1243   1263     1   110.1900474 564.840000
   1245   1246   1247     1   111.5100476 526.347200
   1245   1246   1265     1   111.0400475 552.288000
   1246   1245   1252     1   110.1900474 564.840000
   1246   1247   1251     1   110.1900474 564.840000
   1246   1247   1260     1   107.9700462 569.024000
   1247   1246   1265     1   111.0400475 552.288000
   1251   1247   1260     1   109.3800466 607.516800
   1253   1242   1260     1   107.9700462 569.024000
   1266   1267   1269     1   111.5100476 526.347200
   1266   1267   1287     1   110.1900474 564.840000
   1266   1277   1282     1   110.1900474 564.840000
   1266   1284   1271     1   112.4800480 524.673600
   1267   1266   1277     1   111.5100476 526.347200
   1267   1266   1284     1   107.9700462 569.024000
   1267   1269   1270     1   111.5100476 526.347200
   1267   1269   1276     1   110.1900474 564.840000
   1269   1267   1287     1   110.1900474 564.840000
   1269   1270   1271     1   111.5100476 526.347200
   1269   1270   1289     1   111.0400475 552.288000
   1270   1269   1276     1   110.1900474 564.840000
   1270   1271   1275     1   110.1900474 564.840000
   1270   1271   1284     1   107.9700462 569.024000
   1271   1270   1289     1   111.0400475 552.288000
   1275   1271   1284     1   109.3800466 607.516800
   1277   1266   1284     1   107.9700462 569.024000
   1290   1292   1294     1   111.6100477 551.451200
   1292   1294   1298     1   111.0400475 552.288000
   1294   1298   1299     1   112.3500484 533.878400
   1294   1298   1300     1   112.3500484 533.878400
   1298   1299   1310     1   111.0400475 552.288000
   1298   1300   1302     1   111.0400475 552.288000
   1299   1310   1313     1   111.0400475 529.694400
   1299   1298   1300     1   112.3500484 533.878400
   1300   1302   1306     1   111.0400475 529.694400
   1302   1306   1307     1   123.2000528 564.003200
   1302   1306   1338     1   112.2600482 538.062400
   1306   1338   1319     1   118.5150508 540.957728
   1307   1306   1338     1   118.8300510 581.576000
   1310   1313   1314     1   123.2000528 564.003200
   1310   1313   1362     1   112.2600482 538.062400
   1313   1362   1343     1   118.5150508 540.957728
   1314   1313   1362     1   118.8300510 581.576000
   1315   1316   1318     1   111.5100476 526.347200
   1315   1316   1336     1   110.1900474 564.840000
   1315   1326   1331     1   110.1900474 564.840000
   1315   1333   1320     1   112.4800480 524.673600
   1316   1318   1319     1   111.5100476 526.347200
   1316   1318   1325     1   110.1900474 564.840000
   1316   1315   1326     1   111.5100476 526.347200
   1316   1315   1333     1   107.9700462 569.024000
   1318   1319   1320     1   111.5100476 526.347200
   1318   1319   1338     1   111.0400475 552.288000
   1318   1316   1336     1   110.1900474 564.840000
   1319   1320   1324     1   110.1900474 564.840000
   1319   1320   1333     1   107.9700462 569.024000
   1319   1318   1325     1   110.1900474 564.840000
   1320   1319   1338     1   111.0400475 552.288000
   1324   1320   1333     1   109.3800466 607.516800
   1326   1315   1333     1   107.9700462 569.024000
   1339   1340   1342     1   111.5100476 526.347200
   1339   1340   1360     1   110.1900474 564.840000
   1339   1350   1355     1   110.1900474 564.840000
   1339   1357   1344     1   112.4800480 524.673600
   1340   1342   1343     1   111.5100476 526.347200
   1340   1342   1349     1   110.1900474 564.840000
   1340   1339   1350     1   111.5100476 526.347200
   1340   1339   1357     1   107.9700462 569.024000
   1342   1343   1344     1   111.5100476 526.347200
   1342   1343   1362     1   111.0400475 552.288000
   1342   1340   1360     1   110.1900474 564.840000
   1343   1344   1348     1   110.1900474 564.840000
   1343   1344   1357     1   107.9700462 569.024000
   1343   1342   1349     1   110.1900474 564.840000
   1344   1343   1362     1   111.0400475 552.288000
   1348   1344   1357     1   109.3800466 607.516800
   1350   1339   1357     1   107.9700462 569.024000
   1363   1365   1367     1   111.6100477 551.451200
   1365   1367   1371     1   111.0400475 552.288000
   1367   1371   1372     1   112.3500484 533.878400
   1367   1371   1373     1   112.3500484 533.878400
   1371   1372   1383     1   111.0400475 552.288000
   1371   1373   1375     1   111.0400475 552.288000
   1372   1371   1373     1   112.3500484 533.878400
   1372   1383   1386     1   111.0400475 529.694400
   1373   1375   1379     1   111.0400475 529.694400
   1375   1379   1380     1   123.2000528 564.003200
   1375   1379   1411     1   112.2600482 538.062400
   1379   1411   1392     1   118.5150508 540.957728
   1380   1379   1411     1   118.8300510 581.576000
   1383   1386   1387     1   123.2000528 564.003200
   1383   1386   1435     1   112.2600482 538.062400
   1386   1435   1416     1   118.5150508 540.957728
   1387   1386   1435     1   118.8300510 581.576000
   1388   1389   1391     1   111.5100476 526.347200
   1388   1389   1409     1   110.1900474 564.840000
   1388   1399   1404     1   110.1900474 564.840000
   1388   1406   1393     1   112.4800480 524.673600
   1389   1388   1399     1   111.5100476 526.347200
   1389   1388   1406     1   107.9700462 569.024000
   1389   1391   1392     1   111.5100476 526.347200
   1389   1391   1398     1   110.1900474 564.840000
   1391   1389   1409     1   110.1900474 564.840000
   1391   1392   1393     1   111.5100476 526.347200
   1391   1392   1411     1   111.0400475 552.288000
   1392   1391   1398     1   110.1900474 564.840000
   1392   1393   1397     1   110.1900474 564.840000
   1392   1393   1406     1   107.9700462 569.024000
   1393   1392   1411     1   111.0400475 552.288000
   1397   1393   1406     1   109.3800466 607.516800
   1399   1388   1406     1   107.9700462 569.024000
   1412   1413   1415     1   111.5100476 526.347200
   1412   1413   1433     1   110.1900474 564.840000
   1412   1423   1428     1   110.1900474 564.840000
   1412   1430   1417     1   112.4800480 524.673600
   1413   1412   1423     1   111.5100476 526.347200
   1413   1412   1430     1   107.9700462 569.024000
   1413   1415   1416     1   111.5100476 526.347200
   1413   1415   1422     1   110.1900474 564.840000
   1415   1413   1433     1   110.1900474 564.840000
   1415   1416   1417     1   111.5100476 526.347200
   1415   1416   1435     1   111.0400475 552.288000
   1416   1415   1422     1   110.1900474 564.840000
   1416   1417   1421     1   110.1900474 564.840000
   1416   1417   1430     1   107.9700462 569.024000
   1417   1416   1435     1   111.0400475 552.288000
   1421   1417   1430     1   109.3800466 607.516800
   1423   1412   1430     1   107.9700462 569.024000
   1436   1438   1440     1   111.6100477 551.451200
   1438   1440   1444     1   111.0400475 552.288000
   1440   1444   1445     1   112.3500484 533.878400
   1440   1444   1446     1   112.3500484 533.878400
   1444   1445   1456     1   111.0400475 552.288000
   1444   1446   1448     1   111.0400475 552.288000
   1445   1456   1459     1   111.0400475 529.694400
   1445   1444   1446     1   112.3500484 533.878400
   1446   1448   1452     1   111.0400475 529.694400
   1448   1452   1453     1   123.2000528 564.003200
   1448   1452   1484     1   112.2600482 538.062400
   1452   1484   1465     1   118.5150508 540.957728
   1453   1452   1484     1   118.8300510 581.576000
   1456   1459   1460     1   123.2000528 564.003200
   1456   1459   1508     1   112.2600482 538.062400
   1459   1508   1489     1   118.5150508 540.957728
   1460   1459   1508     1   118.8300510 581.576000
   1461   1462   1464     1   111.5100476 526.347200
   1461   1462   1482     1   110.1900474 564.840000
   1461   1472   1477     1   110.1900474 564.840000
   1461   1479   1466     1   112.4800480 524.673600
   1462   1464   1465     1   111.5100476 526.347200
   1462   1464   1471     1   110.1900474 564.840000
   1462   1461   1472     1   111.5100476 526.347200
   1462   1461   1479     1   107.9700462 569.024000
   1464   1465   1466     1   111.5100476 526.347200
   1464   1465   1484     1   111.0400475 552.288000
   1464   1462   1482     1   110.1900474 564.840000
   1465   1466   1470     1   110.1900474 564.840000
   1465   1466   1479     1   107.9700462 569.024000
   1465   1464   1471     1   110.1900474 564.840000
   1466   1465   1484     1   111.0400475 552.288000
   1470   1466   1479     1   109.3800466 607.516800
   1472   1461   1479     1   107.9700462 569.024000
   1485   1486   1488     1   111.5100476 526.347200
   1485   1486   1506     1   110.1900474 564.840000
   1485   1496   1501     1   110.1900474 564.840000
   1485   1503   1490     1   112.4800480 524.673600
   1486   1488   1489     1   111.5100476 526.347200
   1486   1488   1495     1   110.1900474 564.840000
   1486   1485   1496     1   111.5100476 526.347200
   1486   1485   1503     1   107.9700462 569.024000
   1488   1489   1490     1   111.5100476 526.347200
   1488   1489   1508     1   111.0400475 552.288000
   1488   1486   1506     1   110.1900474 564.840000
   1489   1490   1494     1   110.1900474 564.840000
   1489   1490   1503     1   107.9700462 569.024000
   1489   1488   1495     1   110.1900474 564.840000
   1490   1489   1508     1   111.0400475 552.288000
   1494   1490   1503     1   109.3800466 607.516800
   1496   1485   1503     1   107.9700462 569.024000
      1      4      5     1   109.5600471 388.275200
      1      4      6     1   109.5600471 388.275200
      2      1      4     1   109.5600471 388.275200
      2      1      8     1   109.8800469 414.216000
      2      1      3     1   108.4600466 328.025600
      3      1      4     1   109.5600471 388.275200
      3      1      8     1   109.8800469 414.216000
      5      4      7     1   109.8800469 414.216000
      5      4      6     1   108.4600466 328.025600
      6      4      7     1   109.8800469 414.216000
      7     15     16     1   109.8800469 414.216000
      7     15     17     1   109.8800469 414.216000
      7     18     19     1   109.8800469 414.216000
      7     18     20     1   109.8800469 414.216000
      8      9     10     1   109.8800469 414.216000
      8      9     11     1   109.8800469 414.216000
      8     12     13     1   109.8800469 414.216000
      8     12     14     1   109.8800469 414.216000
      9     30     31     1   109.8000471 387.438400
      9     30     32     1   109.8000471 387.438400
     10      9     30     1   109.5600471 388.275200
     10      9     11     1   108.4600466 328.025600
     11      9     30     1   109.5600471 388.275200
     12     27     28     1   109.8000471 387.438400
     12     27     29     1   109.8000471 387.438400
     13     12     27     1   109.5600471 388.275200
     13     12     14     1   108.4600466 328.025600
     14     12     27     1   109.5600471 388.275200
     15     21     22     1   109.8000471 387.438400
     15     21     23     1   109.8000471 387.438400
     16     15     21     1   109.5600471 388.275200
     16     15     17     1   108.4600466 328.025600
     17     15     21     1   109.5600471 388.275200
     18     24     25     1   109.8000471 387.438400
     18     24     26     1   109.8000471 387.438400
     19     18     24     1   109.5600471 388.275200
     19     18     20     1   108.4600466 328.025600
     20     18     24     1   109.5600471 388.275200
     22     21     35     1   108.7700466 392.459200
     22     21     23     1   107.5800459 329.699200
     23     21     35     1   108.7700466 392.459200
     25     24     36     1   108.7700466 392.459200
     25     24     26     1   107.5800459 329.699200
     26     24     36     1   108.7700466 392.459200
     28     27     33     1   108.7700466 392.459200
     28     27     29     1   107.5800459 329.699200
     29     27     33     1   108.7700466 392.459200
     31     30     34     1   108.7700466 392.459200
     31     30     32     1   107.5800459 329.699200
     32     30     34     1   108.7700466 392.459200
     33     64     65     1   117.5500507 404.174400
     34     89     90     1   117.5500507 404.174400
     35    114    115     1   117.5500507 404.174400
     36    139    140     1   117.5500507 404.174400
     41     44     45     1   109.5600471 388.275200
     41     44     46     1   109.5600471 388.275200
     42     41     44     1   109.5600471 388.275200
     42     41     47     1   109.8800469 414.216000
     42     41     43     1   108.4600466 328.025600
     43     41     44     1   109.5600471 388.275200
     43     41     47     1   109.8800469 414.216000
     44     64     65     1   117.6800502 383.254400
     45     44     64     1   108.8800464 416.726400
     45     44     46     1   108.4600466 328.025600
     46     44     64     1   108.8800464 416.726400
     47     48     49     1   109.8800469 414.216000
     47     48     50     1   109.8800469 414.216000
     47     51     52     1   109.8800469 414.216000
     47     51     53     1   109.8800469 414.216000
     48     57     58     1   109.8000471 387.438400
     48     57     59     1   109.8000471 387.438400
     49     48     57     1   109.5600471 388.275200
     49     48     50     1   108.4600466 328.025600
     50     48     57     1   109.5600471 388.275200
     51     54     55     1   109.8000471 387.438400
     51     54     56     1   109.8000471 387.438400
     52     51     54     1   109.5600471 388.275200
     52     51     53     1   108.4600466 328.025600
     53     51     54     1   109.5600471 388.275200
     55     54     60     1   108.7700466 392.459200
     55     54     56     1   107.5800459 329.699200
     56     54     60     1   108.7700466 392.459200
     58     57     61     1   108.7700466 392.459200
     58     57     59     1   107.5800459 329.699200
     59     57     61     1   108.7700466 392.459200
     60    164    165     1   117.5500507 404.174400
     61    189    190     1   117.5500507 404.174400
     66     69     70     1   109.5600471 388.275200
     66     69     71     1   109.5600471 388.275200
     67     66     69     1   109.5600471 388.275200
     67     66     72     1   109.8800469 414.216000
     67     66     68     1   108.4600466 328.025600
     68     66     69     1   109.5600471 388.275200
     68     66     72     1   109.8800469 414.216000
     69     89     90     1   117.6800502 383.254400
     70     69     89     1   108.8800464 416.726400
     70     69     71     1   108.4600466 328.025600
     71     69     89     1   108.8800464 416.726400
     72     73     74     1   109.8800469 414.216000
     72     73     75     1   109.8800469 414.216000
     72     76     77     1   109.8800469 414.216000
     72     76     78     1   109.8800469 414.216000
     73     82     83     1   109.8000471 387.438400
     73     82     84     1   109.8000471 387.438400
     74     73     82     1   109.5600471 388.275200
     74     73     75     1   108.4600466 328.025600
     75     73     82     1   109.5600471 388.275200
     76     79     80     1   109.8000471 387.438400
     76     79     81     1   109.8000471 387.438400
     77     76     79     1   109.5600471 388.275200
     77     76     78     1   108.4600466 328.025600
     78     76     79     1   109.5600471 388.275200
     80     79     85     1   108.7700466 392.459200
     80     79     81     1   107.5800459 329.699200
     81     79     85     1   108.7700466 392.459200
     83     82     86     1   108.7700466 392.459200
     83     82     84     1   107.5800459 329.699200
     84     82     86     1   108.7700466 392.459200
     85    214    215     1   117.5500507 404.174400
     86    239    240     1   117.5500507 404.174400
     91     94     95     1   109.5600471 388.275200
     91     94     96     1   109.5600471 388.275200
     92     91     94     1   109.5600471 388.275200
     92     91     97     1   109.8800469 414.216000
     92     91     93     1   108.4600466 328.025600
     93     91     94     1   109.5600471 388.275200
     93     91     97     1   109.8800469 414.216000
     94    114    115     1   117.6800502 383.254400
     95     94    114     1   108.8800464 416.726400
     95     94     96     1   108.4600466 328.025600
     96     94    114     1   108.8800464 416.726400
     97     98     99     1   109.8800469 414.216000
     97     98    100     1   109.8800469 414.216000
     97    101    102     1   109.8800469 414.216000
     97    101    103     1   109.8800469 414.216000
     98    107    108     1   109.8000471 387.438400
     98    107    109     1   109.8000471 387.438400
     99     98    107     1   109.5600471 388.275200
     99     98    100     1   108.4600466 328.025600
    100     98    107     1   109.5600471 388.275200
    101    104    105     1   109.8000471 387.438400
    101    104    106     1   109.8000471 387.438400
    102    101    104     1   109.5600471 388.275200
    102    101    103     1   108.4600466 328.025600
    103    101    104     1   109.5600471 388.275200
    105    104    110     1   108.7700466 392.459200
    105    104    106     1   107.5800459 329.699200
    106    104    110     1   108.7700466 392.459200
    108    107    111     1   108.7700466 392.459200
    108    107    109     1   107.5800459 329.699200
    109    107    111     1   108.7700466 392.459200
    110    264    265     1   117.5500507 404.174400
    111    289    290     1   117.5500507 404.174400
    116    119    120     1   109.5600471 388.275200
    116    119    121     1   109.5600471 388.275200
    117    116    119     1   109.5600471 388.275200
    117    116    122     1   109.8800469 414.216000
    117    116    118     1   108.4600466 328.025600
    118    116    119     1   109.5600471 388.275200
    118    116    122     1   109.8800469 414.216000
    119    139    140     1   117.6800502 383.254400
    120    119    139     1   108.8800464 416.726400
    120    119    121     1   108.4600466 328.025600
    121    119    139     1   108.8800464 416.726400
    122    123    124     1   109.8800469 414.216000
    122    123    125     1   109.8800469 414.216000
    122    126    127     1   109.8800469 414.216000
    122    126    128     1   109.8800469 414.216000
    123    132    133     1   109.8000471 387.438400
    123    132    134     1   109.8000471 387.438400
    124    123    132     1   109.5600471 388.275200
    124    123    125     1   108.4600466 328.025600
    125    123    132     1   109.5600471 388.275200
    126    129    130     1   109.8000471 387.438400
    126    129    131     1   109.8000471 387.438400
    127    126    129     1   109.5600471 388.275200
    127    126    128     1   108.4600466 328.025600
    128    126    129     1   109.5600471 388.275200
    130    129    135     1   108.7700466 392.459200
    130    129    131     1   107.5800459 329.699200
    131    129    135     1   108.7700466 392.459200
    133    132    136     1   108.7700466 392.459200
    133    132    134     1   107.5800459 329.699200
    134    132    136     1   108.7700466 392.459200
    135    314    315     1   117.5500507 404.174400
    136    339    340     1   117.5500507 404.174400
    141    144    145     1   109.5600471 388.275200
    141    144    146     1   109.5600471 388.275200
    142    141    144     1   109.5600471 388.275200
    142    141    147     1   109.8800469 414.216000
    142    141    143     1   108.4600466 328.025600
    143    141    144     1   109.5600471 388.275200
    143    141    147     1   109.8800469 414.216000
    144    164    165     1   117.6800502 383.254400
    145    144    164     1   108.8800464 416.726400
    145    144    146     1   108.4600466 328.025600
    146    144    164     1   108.8800464 416.726400
    147    148    149     1   109.8800469 414.216000
    147    148    150     1   109.8800469 414.216000
    147    151    152     1   109.8800469 414.216000
    147    151    153     1   109.8800469 414.216000
    148    157    158     1   109.8000471 387.438400
    148    157    159     1   109.8000471 387.438400
    149    148    157     1   109.5600471 388.275200
    149    148    150     1   108.4600466 328.025600
    150    148    157     1   109.5600471 388.275200
    151    154    155     1   109.8000471 387.438400
    151    154    156     1   109.8000471 387.438400
    152    151    154     1   109.5600471 388.275200
    152    151    153     1   108.4600466 328.025600
    153    151    154     1   109.5600471 388.275200
    155    154    160     1   108.7700466 392.459200
    155    154    156     1   107.5800459 329.699200
    156    154    160     1   108.7700466 392.459200
    158    157    161     1   108.7700466 392.459200
    158    157    159     1   107.5800459 329.699200
    159    157    161     1   108.7700466 392.459200
    160    341    342     1   117.5500507 404.174400
    161    414    415     1   117.5500507 404.174400
    166    169    170     1   109.5600471 388.275200
    166    169    171     1   109.5600471 388.275200
    167    166    169     1   109.5600471 388.275200
    167    166    172     1   109.8800469 414.216000
    167    166    168     1   108.4600466 328.025600
    168    166    169     1   109.5600471 388.275200
    168    166    172     1   109.8800469 414.216000
    169    189    190     1   117.6800502 383.254400
    170    169    189     1   108.8800464 416.726400
    170    169    171     1   108.4600466 328.025600
    171    169    189     1   108.8800464 416.726400
    172    173    174     1   109.8800469 414.216000
    172    173    175     1   109.8800469 414.216000
    172    176    177     1   109.8800469 414.216000
    172    176    178     1   109.8800469 414.216000
    173    182    183     1   109.8000471 387.438400
    173    182    184     1   109.8000471 387.438400
    174    173    182     1   109.5600471 388.275200
    174    173    175     1   108.4600466 328.025600
    175    173    182     1   109.5600471 388.275200
    176    179    180     1   109.8000471 387.438400
    176    179    181     1   109.8000471 387.438400
    177    176    179     1   109.5600471 388.275200
    177    176    178     1   108.4600466 328.025600
    178    176    179     1   109.5600471 388.275200
    180    179    185     1   108.7700466 392.459200
    180    179    181     1   107.5800459 329.699200
    181    179    185     1   108.7700466 392.459200
    183    182    186     1   108.7700466 392.459200
    183    182    184     1   107.5800459 329.699200
    184    182    186     1   108.7700466 392.459200
    185    487    488     1   117.5500507 404.174400
    186    560    561     1   117.5500507 404.174400
    191    194    195     1   109.5600471 388.275200
    191    194    196     1   109.5600471 388.275200
    192    191    194     1   109.5600471 388.275200
    192    191    197     1   109.8800469 414.216000
    192    191    193     1   108.4600466 328.025600
    193    191    194     1   109.5600471 388.275200
    193    191    197     1   109.8800469 414.216000
    194    214    215     1   117.6800502 383.254400
    195    194    214     1   108.8800464 416.726400
    195    194    196     1   108.4600466 328.025600
    196    194    214     1   108.8800464 416.726400
    197    198    199     1   109.8800469 414.216000
    197    198    200     1   109.8800469 414.216000
    197    201    202     1   109.8800469 414.216000
    197    201    203     1   109.8800469 414.216000
    198    207    208     1   109.8000471 387.438400
    198    207    209     1   109.8000471 387.438400
    199    198    207     1   109.5600471 388.275200
    199    198    200     1   108.4600466 328.025600
    200    198    207     1   109.5600471 388.275200
    201    204    205     1   109.8000471 387.438400
    201    204    206     1   109.8000471 387.438400
    202    201    204     1   109.5600471 388.275200
    202    201    203     1   108.4600466 328.025600
    203    201    204     1   109.5600471 388.275200
    205    204    210     1   108.7700466 392.459200
    205    204    206     1   107.5800459 329.699200
    206    204    210     1   108.7700466 392.459200
    208    207    211     1   108.7700466 392.459200
    208    207    209     1   107.5800459 329.699200
    209    207    211     1   108.7700466 392.459200
    210    633    634     1   117.5500507 404.174400
    211    706    707     1   117.5500507 404.174400
    216    219    220     1   109.5600471 388.275200
    216    219    221     1   109.5600471 388.275200
    217    216    219     1   109.5600471 388.275200
    217    216    222     1   109.8800469 414.216000
    217    216    218     1   108.4600466 328.025600
    218    216    219     1   109.5600471 388.275200
    218    216    222     1   109.8800469 414.216000
    219    239    240     1   117.6800502 383.254400
    220    219    239     1   108.8800464 416.726400
    220    219    221     1   108.4600466 328.025600
    221    219    239     1   108.8800464 416.726400
    222    223    224     1   109.8800469 414.216000
    222    223    225     1   109.8800469 414.216000
    222    226    227     1   109.8800469 414.216000
    222    226    228     1   109.8800469 414.216000
    223    232    233     1   109.8000471 387.438400
    223    232    234     1   109.8000471 387.438400
    224    223    232     1   109.5600471 388.275200
    224    223    225     1   108.4600466 328.025600
    225    223    232     1   109.5600471 388.275200
    226    229    230     1   109.8000471 387.438400
    226    229    231     1   109.8000471 387.438400
    227    226    229     1   109.5600471 388.275200
    227    226    228     1   108.4600466 328.025600
    228    226    229     1   109.5600471 388.275200
    230    229    235     1   108.7700466 392.459200
    230    229    231     1   107.5800459 329.699200
    231    229    235     1   108.7700466 392.459200
    233    232    236     1   108.7700466 392.459200
    233    232    234     1   107.5800459 329.699200
    234    232    236     1   108.7700466 392.459200
    235    779    780     1   117.5500507 404.174400
    236    852    853     1   117.5500507 404.174400
    241    244    245     1   109.5600471 388.275200
    241    244    246     1   109.5600471 388.275200
    242    241    244     1   109.5600471 388.275200
    242    241    247     1   109.8800469 414.216000
    242    241    243     1   108.4600466 328.025600
    243    241    244     1   109.5600471 388.275200
    243    241    247     1   109.8800469 414.216000
    244    264    265     1   117.6800502 383.254400
    245    244    264     1   108.8800464 416.726400
    245    244    246     1   108.4600466 328.025600
    246    244    264     1   108.8800464 416.726400
    247    248    249     1   109.8800469 414.216000
    247    248    250     1   109.8800469 414.216000
    247    251    252     1   109.8800469 414.216000
    247    251    253     1   109.8800469 414.216000
    248    257    258     1   109.8000471 387.438400
    248    257    259     1   109.8000471 387.438400
    249    248    257     1   109.5600471 388.275200
    249    248    250     1   108.4600466 328.025600
    250    248    257     1   109.5600471 388.275200
    251    254    255     1   109.8000471 387.438400
    251    254    256     1   109.8000471 387.438400
    252    251    254     1   109.5600471 388.275200
    252    251    253     1   108.4600466 328.025600
    253    251    254     1   109.5600471 388.275200
    255    254    260     1   108.7700466 392.459200
    255    254    256     1   107.5800459 329.699200
    256    254    260     1   108.7700466 392.459200
    258    257    261     1   108.7700466 392.459200
    258    257    259     1   107.5800459 329.699200
    259    257    261     1   108.7700466 392.459200
    260    925    926     1   117.5500507 404.174400
    261    998    999     1   117.5500507 404.174400
    266    269    270     1   109.5600471 388.275200
    266    269    271     1   109.5600471 388.275200
    267    266    269     1   109.5600471 388.275200
    267    266    272     1   109.8800469 414.216000
    267    266    268     1   108.4600466 328.025600
    268    266    269     1   109.5600471 388.275200
    268    266    272     1   109.8800469 414.216000
    269    289    290     1   117.6800502 383.254400
    270    269    289     1   108.8800464 416.726400
    270    269    271     1   108.4600466 328.025600
    271    269    289     1   108.8800464 416.726400
    272    273    274     1   109.8800469 414.216000
    272    273    275     1   109.8800469 414.216000
    272    276    277     1   109.8800469 414.216000
    272    276    278     1   109.8800469 414.216000
    273    282    283     1   109.8000471 387.438400
    273    282    284     1   109.8000471 387.438400
    274    273    282     1   109.5600471 388.275200
    274    273    275     1   108.4600466 328.025600
    275    273    282     1   109.5600471 388.275200
    276    279    280     1   109.8000471 387.438400
    276    279    281     1   109.8000471 387.438400
    277    276    279     1   109.5600471 388.275200
    277    276    278     1   108.4600466 328.025600
    278    276    279     1   109.5600471 388.275200
    280    279    285     1   108.7700466 392.459200
    280    279    281     1   107.5800459 329.699200
    281    279    285     1   108.7700466 392.459200
    283    282    286     1   108.7700466 392.459200
    283    282    284     1   107.5800459 329.699200
    284    282    286     1   108.7700466 392.459200
    285   1071   1072     1   117.5500507 404.174400
    286   1144   1145     1   117.5500507 404.174400
    291    294    295     1   109.5600471 388.275200
    291    294    296     1   109.5600471 388.275200
    292    291    294     1   109.5600471 388.275200
    292    291    297     1   109.8800469 414.216000
    292    291    293     1   108.4600466 328.025600
    293    291    294     1   109.5600471 388.275200
    293    291    297     1   109.8800469 414.216000
    294    314    315     1   117.6800502 383.254400
    295    294    314     1   108.8800464 416.726400
    295    294    296     1   108.4600466 328.025600
    296    294    314     1   108.8800464 416.726400
    297    298    299     1   109.8800469 414.216000
    297    298    300     1   109.8800469 414.216000
    297    301    302     1   109.8800469 414.216000
    297    301    303     1   109.8800469 414.216000
    298    307    308     1   109.8000471 387.438400
    298    307    309     1   109.8000471 387.438400
    299    298    307     1   109.5600471 388.275200
    299    298    300     1   108.4600466 328.025600
    300    298    307     1   109.5600471 388.275200
    301    304    305     1   109.8000471 387.438400
    301    304    306     1   109.8000471 387.438400
    302    301    304     1   109.5600471 388.275200
    302    301    303     1   108.4600466 328.025600
    303    301    304     1   109.5600471 388.275200
    305    304    310     1   108.7700466 392.459200
    305    304    306     1   107.5800459 329.699200
    306    304    310     1   108.7700466 392.459200
    308    307    311     1   108.7700466 392.459200
    308    307    309     1   107.5800459 329.699200
    309    307    311     1   108.7700466 392.459200
    310   1217   1218     1   117.5500507 404.174400
    311   1290   1291     1   117.5500507 404.174400
    316    319    320     1   109.5600471 388.275200
    316    319    321     1   109.5600471 388.275200
    317    316    319     1   109.5600471 388.275200
    317    316    322     1   109.8800469 414.216000
    317    316    318     1   108.4600466 328.025600
    318    316    319     1   109.5600471 388.275200
    318    316    322     1   109.8800469 414.216000
    319    339    340     1   117.6800502 383.254400
    320    319    339     1   108.8800464 416.726400
    320    319    321     1   108.4600466 328.025600
    321    319    339     1   108.8800464 416.726400
    322    323    324     1   109.8800469 414.216000
    322    323    325     1   109.8800469 414.216000
    322    326    327     1   109.8800469 414.216000
    322    326    328     1   109.8800469 414.216000
    323    332    333     1   109.8000471 387.438400
    323    332    334     1   109.8000471 387.438400
    324    323    332     1   109.5600471 388.275200
    324    323    325     1   108.4600466 328.025600
    325    323    332     1   109.5600471 388.275200
    326    329    330     1   109.8000471 387.438400
    326    329    331     1   109.8000471 387.438400
    327    326    329     1   109.5600471 388.275200
    327    326    328     1   108.4600466 328.025600
    328    326    329     1   109.5600471 388.275200
    330    329    335     1   108.7700466 392.459200
    330    329    331     1   107.5800459 329.699200
    331    329    335     1   108.7700466 392.459200
    333    332    336     1   108.7700466 392.459200
    333    332    334     1   107.5800459 329.699200
    334    332    336     1   108.7700466 392.459200
    335   1363   1364     1   117.5500507 404.174400
    336   1436   1437     1   117.5500507 404.174400
    341    343    344     1   108.8800464 416.726400
    341    343    346     1   108.8800464 416.726400
    342    341    343     1   117.6800502 383.254400
    343    345    347     1   109.5600471 388.275200
    343    345    348     1   109.5600471 388.275200
    344    343    345     1   109.5600471 388.275200
    344    343    346     1   108.4600466 328.025600
    345    343    346     1   109.5600471 388.275200
    347    345    349     1   109.8800469 414.216000
    347    345    348     1   108.4600466 328.025600
    348    345    349     1   109.8800469 414.216000
    349    350    359     1   109.8800469 414.216000
    349    350    360     1   109.8800469 414.216000
    349    351    352     1   109.8800469 414.216000
    349    351    354     1   109.8800469 414.216000
    350    361    362     1   109.8000471 387.438400
    350    361    363     1   109.8000471 387.438400
    351    353    355     1   109.8000471 387.438400
    351    353    356     1   109.8000471 387.438400
    352    351    353     1   109.5600471 388.275200
    352    351    354     1   108.4600466 328.025600
    353    351    354     1   109.5600471 388.275200
    355    353    357     1   108.7700466 392.459200
    355    353    356     1   107.5800459 329.699200
    356    353    357     1   108.7700466 392.459200
    357    389    379     1   119.3800509 410.868800
    359    350    361     1   109.5600471 388.275200
    359    350    360     1   108.4600466 328.025600
    360    350    361     1   109.5600471 388.275200
    362    361    364     1   108.7700466 392.459200
    362    361    363     1   107.5800459 329.699200
    363    361    364     1   108.7700466 392.459200
    364    413    403     1   119.3800509 410.868800
    366    367    386     1   109.5600471 388.275200
    366    377    380     1   109.5600471 388.275200
    366    377    381     1   109.5600471 388.275200
    367    366    368     1   109.5600471 388.275200
    367    369    373     1   109.5600471 388.275200
    367    387    388     1   107.2600461 396.643200
    368    366    377     1   109.5600471 388.275200
    368    366    384     1   109.7800468 425.094400
    369    367    386     1   109.5600471 388.275200
    369    370    372     1   109.5600471 388.275200
    369    376    378     1   107.2600461 396.643200
    370    369    373     1   109.5600471 388.275200
    370    371    374     1   110.2200475 386.601600
    370    389    379     1   109.2900470 396.643200
    371    370    372     1   109.5600471 388.275200
    371    375    385     1   107.2600461 396.643200
    372    370    389     1   109.8800469 414.216000
    373    369    376     1   110.2600474 425.931200
    374    371    375     1   109.4300470 427.604800
    374    371    384     1   109.5800467 425.931200
    377    382    383     1   107.2600461 396.643200
    380    377    382     1   110.2600474 425.931200
    380    377    381     1   108.4600466 328.025600
    381    377    382     1   110.2600474 425.931200
    386    367    387     1   110.2600474 425.931200
    390    391    410     1   109.5600471 388.275200
    390    401    404     1   109.5600471 388.275200
    390    401    405     1   109.5600471 388.275200
    391    390    392     1   109.5600471 388.275200
    391    393    397     1   109.5600471 388.275200
    391    411    412     1   107.2600461 396.643200
    392    390    401     1   109.5600471 388.275200
    392    390    408     1   109.7800468 425.094400
    393    391    410     1   109.5600471 388.275200
    393    394    396     1   109.5600471 388.275200
    393    400    402     1   107.2600461 396.643200
    394    393    397     1   109.5600471 388.275200
    394    395    398     1   110.2200475 386.601600
    394    413    403     1   109.2900470 396.643200
    395    394    396     1   109.5600471 388.275200
    395    399    409     1   107.2600461 396.643200
    396    394    413     1   109.8800469 414.216000
    397    393    400     1   110.2600474 425.931200
    398    395    399     1   109.4300470 427.604800
    398    395    408     1   109.5800467 425.931200
    401    406    407     1   107.2600461 396.643200
    404    401    406     1   110.2600474 425.931200
    404    401    405     1   108.4600466 328.025600
    405    401    406     1   110.2600474 425.931200
    410    391    411     1   110.2600474 425.931200
    414    416    417     1   108.8800464 416.726400
    414    416    419     1   108.8800464 416.726400
    415    414    416     1   117.6800502 383.254400
    416    418    420     1   109.5600471 388.275200
    416    418    421     1   109.5600471 388.275200
    417    416    418     1   109.5600471 388.275200
    417    416    419     1   108.4600466 328.025600
    418    416    419     1   109.5600471 388.275200
    420    418    422     1   109.8800469 414.216000
    420    418    421     1   108.4600466 328.025600
    421    418    422     1   109.8800469 414.216000
    422    423    432     1   109.8800469 414.216000
    422    423    433     1   109.8800469 414.216000
    422    424    425     1   109.8800469 414.216000
    422    424    427     1   109.8800469 414.216000
    423    434    435     1   109.8000471 387.438400
    423    434    436     1   109.8000471 387.438400
    424    426    428     1   109.8000471 387.438400
    424    426    429     1   109.8000471 387.438400
    425    424    426     1   109.5600471 388.275200
    425    424    427     1   108.4600466 328.025600
    426    424    427     1   109.5600471 388.275200
    428    426    430     1   108.7700466 392.459200
    428    426    429     1   107.5800459 329.699200
    429    426    430     1   108.7700466 392.459200
    430    462    452     1   119.3800509 410.868800
    432    423    434     1   109.5600471 388.275200
    432    423    433     1   108.4600466 328.025600
    433    423    434     1   109.5600471 388.275200
    435    434    437     1   108.7700466 392.459200
    435    434    436     1   107.5800459 329.699200
    436    434    437     1   108.7700466 392.459200
    437    486    476     1   119.3800509 410.868800
    439    440    459     1   109.5600471 388.275200
    439    450    453     1   109.5600471 388.275200
    439    450    454     1   109.5600471 388.275200
    440    442    446     1   109.5600471 388.275200
    440    460    461     1   107.2600461 396.643200
    440    439    441     1   109.5600471 388.275200
    441    439    450     1   109.5600471 388.275200
    441    439    457     1   109.7800468 425.094400
    442    443    445     1   109.5600471 388.275200
    442    449    451     1   107.2600461 396.643200
    442    440    459     1   109.5600471 388.275200
    443    444    447     1   110.2200475 386.601600
    443    462    452     1   109.2900470 396.643200
    443    442    446     1   109.5600471 388.275200
    444    448    458     1   107.2600461 396.643200
    444    443    445     1   109.5600471 388.275200
    445    443    462     1   109.8800469 414.216000
    446    442    449     1   110.2600474 425.931200
    447    444    448     1   109.4300470 427.604800
    447    444    457     1   109.5800467 425.931200
    450    455    456     1   107.2600461 396.643200
    453    450    455     1   110.2600474 425.931200
    453    450    454     1   108.4600466 328.025600
    454    450    455     1   110.2600474 425.931200
    459    440    460     1   110.2600474 425.931200
    463    464    483     1   109.5600471 388.275200
    463    474    477     1   109.5600471 388.275200
    463    474    478     1   109.5600471 388.275200
    464    466    470     1   109.5600471 388.275200
    464    484    485     1   107.2600461 396.643200
    464    463    465     1   109.5600471 388.275200
    465    463    474     1   109.5600471 388.275200
    465    463    481     1   109.7800468 425.094400
    466    467    469     1   109.5600471 388.275200
    466    473    475     1   107.2600461 396.643200
    466    464    483     1   109.5600471 388.275200
    467    468    471     1   110.2200475 386.601600
    467    486    476     1   109.2900470 396.643200
    467    466    470     1   109.5600471 388.275200
    468    472    482     1   107.2600461 396.643200
    468    467    469     1   109.5600471 388.275200
    469    467    486     1   109.8800469 414.216000
    470    466    473     1   110.2600474 425.931200
    471    468    472     1   109.4300470 427.604800
    471    468    481     1   109.5800467 425.931200
    474    479    480     1   107.2600461 396.643200
    477    474    479     1   110.2600474 425.931200
    477    474    478     1   108.4600466 328.025600
    478    474    479     1   110.2600474 425.931200
    483    464    484     1   110.2600474 425.931200
    487    489    490     1   108.8800464 416.726400
    487    489    492     1   108.8800464 416.726400
    488    487    489     1   117.6800502 383.254400
    489    491    493     1   109.5600471 388.275200
    489    491    494     1   109.5600471 388.275200
    490    489    491     1   109.5600471 388.275200
    490    489    492     1   108.4600466 328.025600
    491    489    492     1   109.5600471 388.275200
    493    491    495     1   109.8800469 414.216000
    493    491    494     1   108.4600466 328.025600
    494    491    495     1   109.8800469 414.216000
    495    496    505     1   109.8800469 414.216000
    495    496    506     1   109.8800469 414.216000
    495    497    498     1   109.8800469 414.216000
    495    497    500     1   109.8800469 414.216000
    496    507    508     1   109.8000471 387.438400
    496    507    509     1   109.8000471 387.438400
    497    499    501     1   109.8000471 387.438400
    497    499    502     1   109.8000471 387.438400
    498    497    499     1   109.5600471 388.275200
    498    497    500     1   108.4600466 328.025600
    499    497    500     1   109.5600471 388.275200
    501    499    503     1   108.7700466 392.459200
    501    499    502     1   107.5800459 329.699200
    502    499    503     1   108.7700466 392.459200
    503    535    525     1   119.3800509 410.868800
    505    496    507     1   109.5600471 388.275200
    505    496    506     1   108.4600466 328.025600
    506    496    507     1   109.5600471 388.275200
    508    507    510     1   108.7700466 392.459200
    508    507    509     1   107.5800459 329.699200
    509    507    510     1   108.7700466 392.459200
    510    559    549     1   119.3800509 410.868800
    512    513    532     1   109.5600471 388.275200
    512    523    526     1   109.5600471 388.275200
    512    523    527     1   109.5600471 388.275200
    513    512    514     1   109.5600471 388.275200
    513    515    519     1   109.5600471 388.275200
    513    533    534     1   107.2600461 396.643200
    514    512    523     1   109.5600471 388.275200
    514    512    530     1   109.7800468 425.094400
    515    513    532     1   109.5600471 388.275200
    515    516    518     1   109.5600471 388.275200
    515    522    524     1   107.2600461 396.643200
    516    515    519     1   109.5600471 388.275200
    516    517    520     1   110.2200475 386.601600
    516    535    525     1   109.2900470 396.643200
    517    516    518     1   109.5600471 388.275200
    517    521    531     1   107.2600461 396.643200
    518    516    535     1   109.8800469 414.216000
    519    515    522     1   110.2600474 425.931200
    520    517    521     1   109.4300470 427.604800
    520    517    530     1   109.5800467 425.931200
    523    528    529     1   107.2600461 396.643200
    526    523    528     1   110.2600474 425.931200
    526    523    527     1   108.4600466 328.025600
    527    523    528     1   110.2600474 425.931200
    532    513    533     1   110.2600474 425.931200
    536    537    556     1   109.5600471 388.275200
    536    547    550     1   109.5600471 388.275200
    536    547    551     1   109.5600471 388.275200
    537    536    538     1   109.5600471 388.275200
    537    539    543     1   109.5600471 388.275200
    537    557    558     1   107.2600461 396.643200
    538    536    547     1   109.5600471 388.275200
    538    536    554     1   109.7800468 425.094400
    539    537    556     1   109.5600471 388.275200
    539    540    542     1   109.5600471 388.275200
    539    546    548     1   107.2600461 396.643200
    540    539    543     1   109.5600471 388.275200
    540    541    544     1   110.2200475 386.601600
    540    559    549     1   109.2900470 396.643200
    541    540    542     1   109.5600471 388.275200
    541    545    555     1   107.2600461 396.643200
    542    540    559     1   109.8800469 414.216000
    543    539    546     1   110.2600474 425.931200
    544    541    545     1   109.4300470 427.604800
    544    541    554     1   109.5800467 425.931200
    547    552    553     1   107.2600461 396.643200
    550    547    552     1   110.2600474 425.931200
    550    547    551     1   108.4600466 328.025600
    551    547    552     1   110.2600474 425.931200
    556    537    557     1   110.2600474 425.931200
    560    562    563     1   108.8800464 416.726400
    560    562    565     1   108.8800464 416.726400
    561    560    562     1   117.6800502 383.254400
    562    564    566     1   109.5600471 388.275200
    562    564    567     1   109.5600471 388.275200
    563    562    564     1   109.5600471 388.275200
    563    562    565     1   108.4600466 328.025600
    564    562    565     1   109.5600471 388.275200
    566    564    568     1   109.8800469 414.216000
    566    564    567     1   108.4600466 328.025600
    567    564    568     1   109.8800469 414.216000
    568    569    578     1   109.8800469 414.216000
    568    569    579     1   109.8800469 414.216000
    568    570    571     1   109.8800469 414.216000
    568    570    573     1   109.8800469 414.216000
    569    580    581     1   109.8000471 387.438400
    569    580    582     1   109.8000471 387.438400
    570    572    574     1   109.8000471 387.438400
    570    572    575     1   109.8000471 387.438400
    571    570    572     1   109.5600471 388.275200
    571    570    573     1   108.4600466 328.025600
    572    570    573     1   109.5600471 388.275200
    574    572    576     1   108.7700466 392.459200
    574    572    575     1   107.5800459 329.699200
    575    572    576     1   108.7700466 392.459200
    576    608    598     1   119.3800509 410.868800
    578    569    580     1   109.5600471 388.275200
    578    569    579     1   108.4600466 328.025600
    579    569    580     1   109.5600471 388.275200
    581    580    583     1   108.7700466 392.459200
    581    580    582     1   107.5800459 329.699200
    582    580    583     1   108.7700466 392.459200
    583    632    622     1   119.3800509 410.868800
    585    586    605     1   109.5600471 388.275200
    585    596    599     1   109.5600471 388.275200
    585    596    600     1   109.5600471 388.275200
    586    588    592     1   109.5600471 388.275200
    586    606    607     1   107.2600461 396.643200
    586    585    587     1   109.5600471 388.275200
    587    585    596     1   109.5600471 388.275200
    587    585    603     1   109.7800468 425.094400
    588    589    591     1   109.5600471 388.275200
    588    595    597     1   107.2600461 396.643200
    588    586    605     1   109.5600471 388.275200
    589    590    593     1   110.2200475 386.601600
    589    608    598     1   109.2900470 396.643200
    589    588    592     1   109.5600471 388.275200
    590    594    604     1   107.2600461 396.643200
    590    589    591     1   109.5600471 388.275200
    591    589    608     1   109.8800469 414.216000
    592    588    595     1   110.2600474 425.931200
    593    590    594     1   109.4300470 427.604800
    593    590    603     1   109.5800467 425.931200
    596    601    602     1   107.2600461 396.643200
    599    596    601     1   110.2600474 425.931200
    599    596    600     1   108.4600466 328.025600
    600    596    601     1   110.2600474 425.931200
    605    586    606     1   110.2600474 425.931200
    609    610    629     1   109.5600471 388.275200
    609    620    623     1   109.5600471 388.275200
    609    620    624     1   109.5600471 388.275200
    610    612    616     1   109.5600471 388.275200
    610    630    631     1   107.2600461 396.643200
    610    609    611     1   109.5600471 388.275200
    611    609    620     1   109.5600471 388.275200
    611    609    627     1   109.7800468 425.094400
    612    613    615     1   109.5600471 388.275200
    612    619    621     1   107.2600461 396.643200
    612    610    629     1   109.5600471 388.275200
    613    614    617     1   110.2200475 386.601600
    613    632    622     1   109.2900470 396.643200
    613    612    616     1   109.5600471 388.275200
    614    618    628     1   107.2600461 396.643200
    614    613    615     1   109.5600471 388.275200
    615    613    632     1   109.8800469 414.216000
    616    612    619     1   110.2600474 425.931200
    617    614    618     1   109.4300470 427.604800
    617    614    627     1   109.5800467 425.931200
    620    625    626     1   107.2600461 396.643200
    623    620    625     1   110.2600474 425.931200
    623    620    624     1   108.4600466 328.025600
    624    620    625     1   110.2600474 425.931200
    629    610    630     1   110.2600474 425.931200
    633    635    636     1   108.8800464 416.726400
    633    635    638     1   108.8800464 416.726400
    634    633    635     1   117.6800502 383.254400
    635    637    639     1   109.5600471 388.275200
    635    637    640     1   109.5600471 388.275200
    636    635    637     1   109.5600471 388.275200
    636    635    638     1   108.4600466 328.025600
    637    635    638     1   109.5600471 388.275200
    639    637    641     1   109.8800469 414.216000
    639    637    640     1   108.4600466 328.025600
    640    637    641     1   109.8800469 414.216000
    641    642    651     1   109.8800469 414.216000
    641    642    652     1   109.8800469 414.216000
    641    643    644     1   109.8800469 414.216000
    641    643    646     1   109.8800469 414.216000
    642    653    654     1   109.8000471 387.438400
    642    653    655     1   109.8000471 387.438400
    643    645    647     1   109.8000471 387.438400
    643    645    648     1   109.8000471 387.438400
    644    643    645     1   109.5600471 388.275200
    644    643    646     1   108.4600466 328.025600
    645    643    646     1   109.5600471 388.275200
    647    645    649     1   108.7700466 392.459200
    647    645    648     1   107.5800459 329.699200
    648    645    649     1   108.7700466 392.459200
    649    681    671     1   119.3800509 410.868800
    651    642    653     1   109.5600471 388.275200
    651    642    652     1   108.4600466 328.025600
    652    642    653     1   109.5600471 388.275200
    654    653    656     1   108.7700466 392.459200
    654    653    655     1   107.5800459 329.699200
    655    653    656     1   108.7700466 392.459200
    656    705    695     1   119.3800509 410.868800
    658    659    678     1   109.5600471 388.275200
    658    669    672     1   109.5600471 388.275200
    658    669    673     1   109.5600471 388.275200
    659    658    660     1   109.5600471 388.275200
    659    661    665     1   109.5600471 388.275200
    659    679    680     1   107.2600461 396.643200
    660    658    669     1   109.5600471 388.275200
    660    658    676     1   109.7800468 425.094400
    661    659    678     1   109.5600471 388.275200
    661    662    664     1   109.5600471 388.275200
    661    668    670     1   107.2600461 396.643200
    662    661    665     1   109.5600471 388.275200
    662    663    666     1   110.2200475 386.601600
    662    681    671     1   109.2900470 396.643200
    663    662    664     1   109.5600471 388.275200
    663    667    677     1   107.2600461 396.643200
    664    662    681     1   109.8800469 414.216000
    665    661    668     1   110.2600474 425.931200
    666    663    667     1   109.4300470 427.604800
    666    663    676     1   109.5800467 425.931200
    669    674    675     1   107.2600461 396.643200
    672    669    674     1   110.2600474 425.931200
    672    669    673     1   108.4600466 328.025600
    673    669    674     1   110.2600474 425.931200
    678    659    679     1   110.2600474 425.931200
    682    683    702     1   109.5600471 388.275200
    682    693    696     1   109.5600471 388.275200
    682    693    697     1   109.5600471 388.275200
    683    682    684     1   109.5600471 388.275200
    683    685    689     1   109.5600471 388.275200
    683    703    704     1   107.2600461 396.643200
    684    682    693     1   109.5600471 388.275200
    684    682    700     1   109.7800468 425.094400
    685    683    702     1   109.5600471 388.275200
    685    686    688     1   109.5600471 388.275200
    685    692    694     1   107.2600461 396.643200
    686    685    689     1   109.5600471 388.275200
    686    687    690     1   110.2200475 386.601600
    686    705    695     1   109.2900470 396.643200
    687    686    688     1   109.5600471 388.275200
    687    691    701     1   107.2600461 396.643200
    688    686    705     1   109.8800469 414.216000
    689    685    692     1   110.2600474 425.931200
    690    687    691     1   109.4300470 427.604800
    690    687    700     1   109.5800467 425.931200
    693    698    699     1   107.2600461 396.643200
    696    693    698     1   110.2600474 425.931200
    696    693    697     1   108.4600466 328.025600
    697    693    698     1   110.2600474 425.931200
    702    683    703     1   110.2600474 425.931200
    706    708    709     1   108.8800464 416.726400
    706    708    711     1   108.8800464 416.726400
    707    706    708     1   117.6800502 383.254400
    708    710    712     1   109.5600471 388.275200
    708    710    713     1   109.5600471 388.275200
    709    708    710     1   109.5600471 388.275200
    709    708    711     1   108.4600466 328.025600
    710    708    711     1   109.5600471 388.275200
    712    710    714     1   109.8800469 414.216000
    712    710    713     1   108.4600466 328.025600
    713    710    714     1   109.8800469 414.216000
    714    715    724     1   109.8800469 414.216000
    714    715    725     1   109.8800469 414.216000
    714    716    717     1   109.8800469 414.216000
    714    716    719     1   109.8800469 414.216000
    715    726    727     1   109.8000471 387.438400
    715    726    728     1   109.8000471 387.438400
    716    718    720     1   109.8000471 387.438400
    716    718    721     1   109.8000471 387.438400
    717    716    718     1   109.5600471 388.275200
    717    716    719     1   108.4600466 328.025600
    718    716    719     1   109.5600471 388.275200
    720    718    722     1   108.7700466 392.459200
    720    718    721     1   107.5800459 329.699200
    721    718    722     1   108.7700466 392.459200
    722    754    744     1   119.3800509 410.868800
    724    715    726     1   109.5600471 388.275200
    724    715    725     1   108.4600466 328.025600
    725    715    726     1   109.5600471 388.275200
    727    726    729     1   108.7700466 392.459200
    727    726    728     1   107.5800459 329.699200
    728    726    729     1   108.7700466 392.459200
    729    778    768     1   119.3800509 410.868800
    731    732    751     1   109.5600471 388.275200
    731    742    745     1   109.5600471 388.275200
    731    742    746     1   109.5600471 388.275200
    732    734    738     1   109.5600471 388.275200
    732    752    753     1   107.2600461 396.643200
    732    731    733     1   109.5600471 388.275200
    733    731    742     1   109.5600471 388.275200
    733    731    749     1   109.7800468 425.094400
    734    735    737     1   109.5600471 388.275200
    734    741    743     1   107.2600461 396.643200
    734    732    751     1   109.5600471 388.275200
    735    736    739     1   110.2200475 386.601600
    735    754    744     1   109.2900470 396.643200
    735    734    738     1   109.5600471 388.275200
    736    740    750     1   107.2600461 396.643200
    736    735    737     1   109.5600471 388.275200
    737    735    754     1   109.8800469 414.216000
    738    734    741     1   110.2600474 425.931200
    739    736    740     1   109.4300470 427.604800
    739    736    749     1   109.5800467 425.931200
    742    747    748     1   107.2600461 396.643200
    745    742    747     1   110.2600474 425.931200
    745    742    746     1   108.4600466 328.025600
    746    742    747     1   110.2600474 425.931200
    751    732    752     1   110.2600474 425.931200
    755    756    775     1   109.5600471 388.275200
    755    766    769     1   109.5600471 388.275200
    755    766    770     1   109.5600471 388.275200
    756    758    762     1   109.5600471 388.275200
    756    776    777     1   107.2600461 396.643200
    756    755    757     1   109.5600471 388.275200
    757    755    766     1   109.5600471 388.275200
    757    755    773     1   109.7800468 425.094400
    758    759    761     1   109.5600471 388.275200
    758    765    767     1   107.2600461 396.643200
    758    756    775     1   109.5600471 388.275200
    759    760    763     1   110.2200475 386.601600
    759    778    768     1   109.2900470 396.643200
    759    758    762     1   109.5600471 388.275200
    760    764    774     1   107.2600461 396.643200
    760    759    761     1   109.5600471 388.275200
    761    759    778     1   109.8800469 414.216000
    762    758    765     1   110.2600474 425.931200
    763    760    764     1   109.4300470 427.604800
    763    760    773     1   109.5800467 425.931200
    766    771    772     1   107.2600461 396.643200
    769    766    771     1   110.2600474 425.931200
    769    766    770     1   108.4600466 328.025600
    770    766    771     1   110.2600474 425.931200
    775    756    776     1   110.2600474 425.931200
    779    781    782     1   108.8800464 416.726400
    779    781    784     1   108.8800464 416.726400
    780    779    781     1   117.6800502 383.254400
    781    783    785     1   109.5600471 388.275200
    781    783    786     1   109.5600471 388.275200
    782    781    783     1   109.5600471 388.275200
    782    781    784     1   108.4600466 328.025600
    783    781    784     1   109.5600471 388.275200
    785    783    787     1   109.8800469 414.216000
    785    783    786     1   108.4600466 328.025600
    786    783    787     1   109.8800469 414.216000
    787    788    797     1   109.8800469 414.216000
    787    788    798     1   109.8800469 414.216000
    787    789    790     1   109.8800469 414.216000
    787    789    792     1   109.8800469 414.216000
    788    799    800     1   109.8000471 387.438400
    788    799    801     1   109.8000471 387.438400
    789    791    793     1   109.8000471 387.438400
    789    791    794     1   109.8000471 387.438400
    790    789    791     1   109.5600471 388.275200
    790    789    792     1   108.4600466 328.025600
    791    789    792     1   109.5600471 388.275200
    793    791    795     1   108.7700466 392.459200
    793    791    794     1   107.5800459 329.699200
    794    791    795     1   108.7700466 392.459200
    795    827    817     1   119.3800509 410.868800
    797    788    799     1   109.5600471 388.275200
    797    788    798     1   108.4600466 328.025600
    798    788    799     1   109.5600471 388.275200
    800    799    802     1   108.7700466 392.459200
    800    799    801     1   107.5800459 329.699200
    801    799    802     1   108.7700466 392.459200
    802    851    841     1   119.3800509 410.868800
    804    805    824     1   109.5600471 388.275200
    804    815    818     1   109.5600471 388.275200
    804    815    819     1   109.5600471 388.275200
    805    804    806     1   109.5600471 388.275200
    805    807    811     1   109.5600471 388.275200
    805    825    826     1   107.2600461 396.643200
    806    804    815     1   109.5600471 388.275200
    806    804    822     1   109.7800468 425.094400
    807    805    824     1   109.5600471 388.275200
    807    808    810     1   109.5600471 388.275200
    807    814    816     1   107.2600461 396.643200
    808    807    811     1   109.5600471 388.275200
    808    809    812     1   110.2200475 386.601600
    808    827    817     1   109.2900470 396.643200
    809    808    810     1   109.5600471 388.275200
    809    813    823     1   107.2600461 396.643200
    810    808    827     1   109.8800469 414.216000
    811    807    814     1   110.2600474 425.931200
    812    809    813     1   109.4300470 427.604800
    812    809    822     1   109.5800467 425.931200
    815    820    821     1   107.2600461 396.643200
    818    815    820     1   110.2600474 425.931200
    818    815    819     1   108.4600466 328.025600
    819    815    820     1   110.2600474 425.931200
    824    805    825     1   110.2600474 425.931200
    828    829    848     1   109.5600471 388.275200
    828    839    842     1   109.5600471 388.275200
    828    839    843     1   109.5600471 388.275200
    829    828    830     1   109.5600471 388.275200
    829    831    835     1   109.5600471 388.275200
    829    849    850     1   107.2600461 396.643200
    830    828    839     1   109.5600471 388.275200
    830    828    846     1   109.7800468 425.094400
    831    829    848     1   109.5600471 388.275200
    831    832    834     1   109.5600471 388.275200
    831    838    840     1   107.2600461 396.643200
    832    831    835     1   109.5600471 388.275200
    832    833    836     1   110.2200475 386.601600
    832    851    841     1   109.2900470 396.643200
    833    832    834     1   109.5600471 388.275200
    833    837    847     1   107.2600461 396.643200
    834    832    851     1   109.8800469 414.216000
    835    831    838     1   110.2600474 425.931200
    836    833    837     1   109.4300470 427.604800
    836    833    846     1   109.5800467 425.931200
    839    844    845     1   107.2600461 396.643200
    842    839    844     1   110.2600474 425.931200
    842    839    843     1   108.4600466 328.025600
    843    839    844     1   110.2600474 425.931200
    848    829    849     1   110.2600474 425.931200
    852    854    855     1   108.8800464 416.726400
    852    854    857     1   108.8800464 416.726400
    853    852    854     1   117.6800502 383.254400
    854    856    858     1   109.5600471 388.275200
    854    856    859     1   109.5600471 388.275200
    855    854    856     1   109.5600471 388.275200
    855    854    857     1   108.4600466 328.025600
    856    854    857     1   109.5600471 388.275200
    858    856    860     1   109.8800469 414.216000
    858    856    859     1   108.4600466 328.025600
    859    856    860     1   109.8800469 414.216000
    860    861    870     1   109.8800469 414.216000
    860    861    871     1   109.8800469 414.216000
    860    862    863     1   109.8800469 414.216000
    860    862    865     1   109.8800469 414.216000
    861    872    873     1   109.8000471 387.438400
    861    872    874     1   109.8000471 387.438400
    862    864    866     1   109.8000471 387.438400
    862    864    867     1   109.8000471 387.438400
    863    862    864     1   109.5600471 388.275200
    863    862    865     1   108.4600466 328.025600
    864    862    865     1   109.5600471 388.275200
    866    864    868     1   108.7700466 392.459200
    866    864    867     1   107.5800459 329.699200
    867    864    868     1   108.7700466 392.459200
    868    900    890     1   119.3800509 410.868800
    870    861    872     1   109.5600471 388.275200
    870    861    871     1   108.4600466 328.025600
    871    861    872     1   109.5600471 388.275200
    873    872    875     1   108.7700466 392.459200
    873    872    874     1   107.5800459 329.699200
    874    872    875     1   108.7700466 392.459200
    875    924    914     1   119.3800509 410.868800
    877    878    897     1   109.5600471 388.275200
    877    888    891     1   109.5600471 388.275200
    877    888    892     1   109.5600471 388.275200
    878    880    884     1   109.5600471 388.275200
    878    898    899     1   107.2600461 396.643200
    878    877    879     1   109.5600471 388.275200
    879    877    888     1   109.5600471 388.275200
    879    877    895     1   109.7800468 425.094400
    880    881    883     1   109.5600471 388.275200
    880    887    889     1   107.2600461 396.643200
    880    878    897     1   109.5600471 388.275200
    881    882    885     1   110.2200475 386.601600
    881    900    890     1   109.2900470 396.643200
    881    880    884     1   109.5600471 388.275200
    882    886    896     1   107.2600461 396.643200
    882    881    883     1   109.5600471 388.275200
    883    881    900     1   109.8800469 414.216000
    884    880    887     1   110.2600474 425.931200
    885    882    886     1   109.4300470 427.604800
    885    882    895     1   109.5800467 425.931200
    888    893    894     1   107.2600461 396.643200
    891    888    893     1   110.2600474 425.931200
    891    888    892     1   108.4600466 328.025600
    892    888    893     1   110.2600474 425.931200
    897    878    898     1   110.2600474 425.931200
    901    902    921     1   109.5600471 388.275200
    901    912    915     1   109.5600471 388.275200
    901    912    916     1   109.5600471 388.275200
    902    904    908     1   109.5600471 388.275200
    902    922    923     1   107.2600461 396.643200
    902    901    903     1   109.5600471 388.275200
    903    901    912     1   109.5600471 388.275200
    903    901    919     1   109.7800468 425.094400
    904    905    907     1   109.5600471 388.275200
    904    911    913     1   107.2600461 396.643200
    904    902    921     1   109.5600471 388.275200
    905    906    909     1   110.2200475 386.601600
    905    924    914     1   109.2900470 396.643200
    905    904    908     1   109.5600471 388.275200
    906    910    920     1   107.2600461 396.643200
    906    905    907     1   109.5600471 388.275200
    907    905    924     1   109.8800469 414.216000
    908    904    911     1   110.2600474 425.931200
    909    906    910     1   109.4300470 427.604800
    909    906    919     1   109.5800467 425.931200
    912    917    918     1   107.2600461 396.643200
    915    912    917     1   110.2600474 425.931200
    915    912    916     1   108.4600466 328.025600
    916    912    917     1   110.2600474 425.931200
    921    902    922     1   110.2600474 425.931200
    925    927    928     1   108.8800464 416.726400
    925    927    930     1   108.8800464 416.726400
    926    925    927     1   117.6800502 383.254400
    927    929    931     1   109.5600471 388.275200
    927    929    932     1   109.5600471 388.275200
    928    927    929     1   109.5600471 388.275200
    928    927    930     1   108.4600466 328.025600
    929    927    930     1   109.5600471 388.275200
    931    929    933     1   109.8800469 414.216000
    931    929    932     1   108.4600466 328.025600
    932    929    933     1   109.8800469 414.216000
    933    934    943     1   109.8800469 414.216000
    933    934    944     1   109.8800469 414.216000
    933    935    936     1   109.8800469 414.216000
    933    935    938     1   109.8800469 414.216000
    934    945    946     1   109.8000471 387.438400
    934    945    947     1   109.8000471 387.438400
    935    937    939     1   109.8000471 387.438400
    935    937    940     1   109.8000471 387.438400
    936    935    937     1   109.5600471 388.275200
    936    935    938     1   108.4600466 328.025600
    937    935    938     1   109.5600471 388.275200
    939    937    941     1   108.7700466 392.459200
    939    937    940     1   107.5800459 329.699200
    940    937    941     1   108.7700466 392.459200
    941    973    963     1   119.3800509 410.868800
    943    934    945     1   109.5600471 388.275200
    943    934    944     1   108.4600466 328.025600
    944    934    945     1   109.5600471 388.275200
    946    945    948     1   108.7700466 392.459200
    946    945    947     1   107.5800459 329.699200
    947    945    948     1   108.7700466 392.459200
    948    997    987     1   119.3800509 410.868800
    950    951    970     1   109.5600471 388.275200
    950    961    964     1   109.5600471 388.275200
    950    961    965     1   109.5600471 388.275200
    951    950    952     1   109.5600471 388.275200
    951    953    957     1   109.5600471 388.275200
    951    971    972     1   107.2600461 396.643200
    952    950    961     1   109.5600471 388.275200
    952    950    968     1   109.7800468 425.094400
    953    951    970     1   109.5600471 388.275200
    953    954    956     1   109.5600471 388.275200
    953    960    962     1   107.2600461 396.643200
    954    953    957     1   109.5600471 388.275200
    954    955    958     1   110.2200475 386.601600
    954    973    963     1   109.2900470 396.643200
    955    954    956     1   109.5600471 388.275200
    955    959    969     1   107.2600461 396.643200
    956    954    973     1   109.8800469 414.216000
    957    953    960     1   110.2600474 425.931200
    958    955    959     1   109.4300470 427.604800
    958    955    968     1   109.5800467 425.931200
    961    966    967     1   107.2600461 396.643200
    964    961    966     1   110.2600474 425.931200
    964    961    965     1   108.4600466 328.025600
    965    961    966     1   110.2600474 425.931200
    970    951    971     1   110.2600474 425.931200
    974    975    994     1   109.5600471 388.275200
    974    985    988     1   109.5600471 388.275200
    974    985    989     1   109.5600471 388.275200
    975    974    976     1   109.5600471 388.275200
    975    977    981     1   109.5600471 388.275200
    975    995    996     1   107.2600461 396.643200
    976    974    985     1   109.5600471 388.275200
    976    974    992     1   109.7800468 425.094400
    977    975    994     1   109.5600471 388.275200
    977    978    980     1   109.5600471 388.275200
    977    984    986     1   107.2600461 396.643200
    978    977    981     1   109.5600471 388.275200
    978    979    982     1   110.2200475 386.601600
    978    997    987     1   109.2900470 396.643200
    979    978    980     1   109.5600471 388.275200
    979    983    993     1   107.2600461 396.643200
    980    978    997     1   109.8800469 414.216000
    981    977    984     1   110.2600474 425.931200
    982    979    983     1   109.4300470 427.604800
    982    979    992     1   109.5800467 425.931200
    985    990    991     1   107.2600461 396.643200
    988    985    990     1   110.2600474 425.931200
    988    985    989     1   108.4600466 328.025600
    989    985    990     1   110.2600474 425.931200
    994    975    995     1   110.2600474 425.931200
    998   1000   1001     1   108.8800464 416.726400
    998   1000   1003     1   108.8800464 416.726400
    999    998   1000     1   117.6800502 383.254400
   1000   1002   1004     1   109.5600471 388.275200
   1000   1002   1005     1   109.5600471 388.275200
   1001   1000   1002     1   109.5600471 388.275200
   1001   1000   1003     1   108.4600466 328.025600
   1002   1000   1003     1   109.5600471 388.275200
   1004   1002   1006     1   109.8800469 414.216000
   1004   1002   1005     1   108.4600466 328.025600
   1005   1002   1006     1   109.8800469 414.216000
   1006   1007   1016     1   109.8800469 414.216000
   1006   1007   1017     1   109.8800469 414.216000
   1006   1008   1009     1   109.8800469 414.216000
   1006   1008   1011     1   109.8800469 414.216000
   1007   1018   1019     1   109.8000471 387.438400
   1007   1018   1020     1   109.8000471 387.438400
   1008   1010   1012     1   109.8000471 387.438400
   1008   1010   1013     1   109.8000471 387.438400
   1009   1008   1010     1   109.5600471 388.275200
   1009   1008   1011     1   108.4600466 328.025600
   1010   1008   1011     1   109.5600471 388.275200
   1012   1010   1014     1   108.7700466 392.459200
   1012   1010   1013     1   107.5800459 329.699200
   1013   1010   1014     1   108.7700466 392.459200
   1014   1046   1036     1   119.3800509 410.868800
   1016   1007   1018     1   109.5600471 388.275200
   1016   1007   1017     1   108.4600466 328.025600
   1017   1007   1018     1   109.5600471 388.275200
   1019   1018   1021     1   108.7700466 392.459200
   1019   1018   1020     1   107.5800459 329.699200
   1020   1018   1021     1   108.7700466 392.459200
   1021   1070   1060     1   119.3800509 410.868800
   1023   1024   1043     1   109.5600471 388.275200
   1023   1034   1037     1   109.5600471 388.275200
   1023   1034   1038     1   109.5600471 388.275200
   1024   1026   1030     1   109.5600471 388.275200
   1024   1044   1045     1   107.2600461 396.643200
   1024   1023   1025     1   109.5600471 388.275200
   1025   1023   1034     1   109.5600471 388.275200
   1025   1023   1041     1   109.7800468 425.094400
   1026   1027   1029     1   109.5600471 388.275200
   1026   1033   1035     1   107.2600461 396.643200
   1026   1024   1043     1   109.5600471 388.275200
   1027   1028   1031     1   110.2200475 386.601600
   1027   1046   1036     1   109.2900470 396.643200
   1027   1026   1030     1   109.5600471 388.275200
   1028   1032   1042     1   107.2600461 396.643200
   1028   1027   1029     1   109.5600471 388.275200
   1029   1027   1046     1   109.8800469 414.216000
   1030   1026   1033     1   110.2600474 425.931200
   1031   1028   1032     1   109.4300470 427.604800
   1031   1028   1041     1   109.5800467 425.931200
   1034   1039   1040     1   107.2600461 396.643200
   1037   1034   1039     1   110.2600474 425.931200
   1037   1034   1038     1   108.4600466 328.025600
   1038   1034   1039     1   110.2600474 425.931200
   1043   1024   1044     1   110.2600474 425.931200
   1047   1048   1067     1   109.5600471 388.275200
   1047   1058   1061     1   109.5600471 388.275200
   1047   1058   1062     1   109.5600471 388.275200
   1048   1050   1054     1   109.5600471 388.275200
   1048   1068   1069     1   107.2600461 396.643200
   1048   1047   1049     1   109.5600471 388.275200
   1049   1047   1058     1   109.5600471 388.275200
   1049   1047   1065     1   109.7800468 425.094400
   1050   1051   1053     1   109.5600471 388.275200
   1050   1057   1059     1   107.2600461 396.643200
   1050   1048   1067     1   109.5600471 388.275200
   1051   1052   1055     1   110.2200475 386.601600
   1051   1070   1060     1   109.2900470 396.643200
   1051   1050   1054     1   109.5600471 388.275200
   1052   1056   1066     1   107.2600461 396.643200
   1052   1051   1053     1   109.5600471 388.275200
   1053   1051   1070     1   109.8800469 414.216000
   1054   1050   1057     1   110.2600474 425.931200
   1055   1052   1056     1   109.4300470 427.604800
   1055   1052   1065     1   109.5800467 425.931200
   1058   1063   1064     1   107.2600461 396.643200
   1061   1058   1063     1   110.2600474 425.931200
   1061   1058   1062     1   108.4600466 328.025600
   1062   1058   1063     1   110.2600474 425.931200
   1067   1048   1068     1   110.2600474 425.931200
   1071   1073   1074     1   108.8800464 416.726400
   1071   1073   1076     1   108.8800464 416.726400
   1072   1071   1073     1   117.6800502 383.254400
   1073   1075   1077     1   109.5600471 388.275200
   1073   1075   1078     1   109.5600471 388.275200
   1074   1073   1075     1   109.5600471 388.275200
   1074   1073   1076     1   108.4600466 328.025600
   1075   1073   1076     1   109.5600471 388.275200
   1077   1075   1079     1   109.8800469 414.216000
   1077   1075   1078     1   108.4600466 328.025600
   1078   1075   1079     1   109.8800469 414.216000
   1079   1080   1089     1   109.8800469 414.216000
   1079   1080   1090     1   109.8800469 414.216000
   1079   1081   1082     1   109.8800469 414.216000
   1079   1081   1084     1   109.8800469 414.216000
   1080   1091   1092     1   109.8000471 387.438400
   1080   1091   1093     1   109.8000471 387.438400
   1081   1083   1085     1   109.8000471 387.438400
   1081   1083   1086     1   109.8000471 387.438400
   1082   1081   1083     1   109.5600471 388.275200
   1082   1081   1084     1   108.4600466 328.025600
   1083   1081   1084     1   109.5600471 388.275200
   1085   1083   1087     1   108.7700466 392.459200
   1085   1083   1086     1   107.5800459 329.699200
   1086   1083   1087     1   108.7700466 392.459200
   1087   1119   1109     1   119.3800509 410.868800
   1089   1080   1091     1   109.5600471 388.275200
   1089   1080   1090     1   108.4600466 328.025600
   1090   1080   1091     1   109.5600471 388.275200
   1092   1091   1094     1   108.7700466 392.459200
   1092   1091   1093     1   107.5800459 329.699200
   1093   1091   1094     1   108.7700466 392.459200
   1094   1143   1133     1   119.3800509 410.868800
   1096   1097   1116     1   109.5600471 388.275200
   1096   1107   1110     1   109.5600471 388.275200
   1096   1107   1111     1   109.5600471 388.275200
   1097   1096   1098     1   109.5600471 388.275200
   1097   1099   1103     1   109.5600471 388.275200
   1097   1117   1118     1   107.2600461 396.643200
   1098   1096   1107     1   109.5600471 388.275200
   1098   1096   1114     1   109.7800468 425.094400
   1099   1097   1116     1   109.5600471 388.275200
   1099   1100   1102     1   109.5600471 388.275200
   1099   1106   1108     1   107.2600461 396.643200
   1100   1099   1103     1   109.5600471 388.275200
   1100   1101   1104     1   110.2200475 386.601600
   1100   1119   1109     1   109.2900470 396.643200
   1101   1100   1102     1   109.5600471 388.275200
   1101   1105   1115     1   107.2600461 396.643200
   1102   1100   1119     1   109.8800469 414.216000
   1103   1099   1106     1   110.2600474 425.931200
   1104   1101   1105     1   109.4300470 427.604800
   1104   1101   1114     1   109.5800467 425.931200
   1107   1112   1113     1   107.2600461 396.643200
   1110   1107   1112     1   110.2600474 425.931200
   1110   1107   1111     1   108.4600466 328.025600
   1111   1107   1112     1   110.2600474 425.931200
   1116   1097   1117     1   110.2600474 425.931200
   1120   1121   1140     1   109.5600471 388.275200
   1120   1131   1134     1   109.5600471 388.275200
   1120   1131   1135     1   109.5600471 388.275200
   1121   1120   1122     1   109.5600471 388.275200
   1121   1123   1127     1   109.5600471 388.275200
   1121   1141   1142     1   107.2600461 396.643200
   1122   1120   1131     1   109.5600471 388.275200
   1122   1120   1138     1   109.7800468 425.094400
   1123   1121   1140     1   109.5600471 388.275200
   1123   1124   1126     1   109.5600471 388.275200
   1123   1130   1132     1   107.2600461 396.643200
   1124   1123   1127     1   109.5600471 388.275200
   1124   1125   1128     1   110.2200475 386.601600
   1124   1143   1133     1   109.2900470 396.643200
   1125   1124   1126     1   109.5600471 388.275200
   1125   1129   1139     1   107.2600461 396.643200
   1126   1124   1143     1   109.8800469 414.216000
   1127   1123   1130     1   110.2600474 425.931200
   1128   1125   1129     1   109.4300470 427.604800
   1128   1125   1138     1   109.5800467 425.931200
   1131   1136   1137     1   107.2600461 396.643200
   1134   1131   1136     1   110.2600474 425.931200
   1134   1131   1135     1   108.4600466 328.025600
   1135   1131   1136     1   110.2600474 425.931200
   1140   1121   1141     1   110.2600474 425.931200
   1144   1146   1147     1   108.8800464 416.726400
   1144   1146   1149     1   108.8800464 416.726400
   1145   1144   1146     1   117.6800502 383.254400
   1146   1148   1150     1   109.5600471 388.275200
   1146   1148   1151     1   109.5600471 388.275200
   1147   1146   1148     1   109.5600471 388.275200
   1147   1146   1149     1   108.4600466 328.025600
   1148   1146   1149     1   109.5600471 388.275200
   1150   1148   1152     1   109.8800469 414.216000
   1150   1148   1151     1   108.4600466 328.025600
   1151   1148   1152     1   109.8800469 414.216000
   1152   1153   1162     1   109.8800469 414.216000
   1152   1153   1163     1   109.8800469 414.216000
   1152   1154   1155     1   109.8800469 414.216000
   1152   1154   1157     1   109.8800469 414.216000
   1153   1164   1165     1   109.8000471 387.438400
   1153   1164   1166     1   109.8000471 387.438400
   1154   1156   1158     1   109.8000471 387.438400
   1154   1156   1159     1   109.8000471 387.438400
   1155   1154   1156     1   109.5600471 388.275200
   1155   1154   1157     1   108.4600466 328.025600
   1156   1154   1157     1   109.5600471 388.275200
   1158   1156   1160     1   108.7700466 392.459200
   1158   1156   1159     1   107.5800459 329.699200
   1159   1156   1160     1   108.7700466 392.459200
   1160   1192   1182     1   119.3800509 410.868800
   1162   1153   1164     1   109.5600471 388.275200
   1162   1153   1163     1   108.4600466 328.025600
   1163   1153   1164     1   109.5600471 388.275200
   1165   1164   1167     1   108.7700466 392.459200
   1165   1164   1166     1   107.5800459 329.699200
   1166   1164   1167     1   108.7700466 392.459200
   1167   1216   1206     1   119.3800509 410.868800
   1169   1170   1189     1   109.5600471 388.275200
   1169   1180   1183     1   109.5600471 388.275200
   1169   1180   1184     1   109.5600471 388.275200
   1170   1172   1176     1   109.5600471 388.275200
   1170   1190   1191     1   107.2600461 396.643200
   1170   1169   1171     1   109.5600471 388.275200
   1171   1169   1180     1   109.5600471 388.275200
   1171   1169   1187     1   109.7800468 425.094400
   1172   1173   1175     1   109.5600471 388.275200
   1172   1179   1181     1   107.2600461 396.643200
   1172   1170   1189     1   109.5600471 388.275200
   1173   1174   1177     1   110.2200475 386.601600
   1173   1192   1182     1   109.2900470 396.643200
   1173   1172   1176     1   109.5600471 388.275200
   1174   1178   1188     1   107.2600461 396.643200
   1174   1173   1175     1   109.5600471 388.275200
   1175   1173   1192     1   109.8800469 414.216000
   1176   1172   1179     1   110.2600474 425.931200
   1177   1174   1178     1   109.4300470 427.604800
   1177   1174   1187     1   109.5800467 425.931200
   1180   1185   1186     1   107.2600461 396.643200
   1183   1180   1185     1   110.2600474 425.931200
   1183   1180   1184     1   108.4600466 328.025600
   1184   1180   1185     1   110.2600474 425.931200
   1189   1170   1190     1   110.2600474 425.931200
   1193   1194   1213     1   109.5600471 388.275200
   1193   1204   1207     1   109.5600471 388.275200
   1193   1204   1208     1   109.5600471 388.275200
   1194   1196   1200     1   109.5600471 388.275200
   1194   1214   1215     1   107.2600461 396.643200
   1194   1193   1195     1   109.5600471 388.275200
   1195   1193   1204     1   109.5600471 388.275200
   1195   1193   1211     1   109.7800468 425.094400
   1196   1197   1199     1   109.5600471 388.275200
   1196   1203   1205     1   107.2600461 396.643200
   1196   1194   1213     1   109.5600471 388.275200
   1197   1198   1201     1   110.2200475 386.601600
   1197   1216   1206     1   109.2900470 396.643200
   1197   1196   1200     1   109.5600471 388.275200
   1198   1202   1212     1   107.2600461 396.643200
   1198   1197   1199     1   109.5600471 388.275200
   1199   1197   1216     1   109.8800469 414.216000
   1200   1196   1203     1   110.2600474 425.931200
   1201   1198   1202     1   109.4300470 427.604800
   1201   1198   1211     1   109.5800467 425.931200
   1204   1209   1210     1   107.2600461 396.643200
   1207   1204   1209     1   110.2600474 425.931200
   1207   1204   1208     1   108.4600466 328.025600
   1208   1204   1209     1   110.2600474 425.931200
   1213   1194   1214     1   110.2600474 425.931200
   1217   1219   1220     1   108.8800464 416.726400
   1217   1219   1222     1   108.8800464 416.726400
   1218   1217   1219     1   117.6800502 383.254400
   1219   1221   1223     1   109.5600471 388.275200
   1219   1221   1224     1   109.5600471 388.275200
   1220   1219   1221     1   109.5600471 388.275200
   1220   1219   1222     1   108.4600466 328.025600
   1221   1219   1222     1   109.5600471 388.275200
   1223   1221   1225     1   109.8800469 414.216000
   1223   1221   1224     1   108.4600466 328.025600
   1224   1221   1225     1   109.8800469 414.216000
   1225   1226   1235     1   109.8800469 414.216000
   1225   1226   1236     1   109.8800469 414.216000
   1225   1227   1228     1   109.8800469 414.216000
   1225   1227   1230     1   109.8800469 414.216000
   1226   1237   1238     1   109.8000471 387.438400
   1226   1237   1239     1   109.8000471 387.438400
   1227   1229   1231     1   109.8000471 387.438400
   1227   1229   1232     1   109.8000471 387.438400
   1228   1227   1229     1   109.5600471 388.275200
   1228   1227   1230     1   108.4600466 328.025600
   1229   1227   1230     1   109.5600471 388.275200
   1231   1229   1233     1   108.7700466 392.459200
   1231   1229   1232     1   107.5800459 329.699200
   1232   1229   1233     1   108.7700466 392.459200
   1233   1265   1255     1   119.3800509 410.868800
   1235   1226   1237     1   109.5600471 388.275200
   1235   1226   1236     1   108.4600466 328.025600
   1236   1226   1237     1   109.5600471 388.275200
   1238   1237   1240     1   108.7700466 392.459200
   1238   1237   1239     1   107.5800459 329.699200
   1239   1237   1240     1   108.7700466 392.459200
   1240   1289   1279     1   119.3800509 410.868800
   1242   1243   1262     1   109.5600471 388.275200
   1242   1253   1256     1   109.5600471 388.275200
   1242   1253   1257     1   109.5600471 388.275200
   1243   1242   1244     1   109.5600471 388.275200
   1243   1245   1249     1   109.5600471 388.275200
   1243   1263   1264     1   107.2600461 396.643200
   1244   1242   1253     1   109.5600471 388.275200
   1244   1242   1260     1   109.7800468 425.094400
   1245   1243   1262     1   109.5600471 388.275200
   1245   1246   1248     1   109.5600471 388.275200
   1245   1252   1254     1   107.2600461 396.643200
   1246   1245   1249     1   109.5600471 388.275200
   1246   1247   1250     1   110.2200475 386.601600
   1246   1265   1255     1   109.2900470 396.643200
   1247   1246   1248     1   109.5600471 388.275200
   1247   1251   1261     1   107.2600461 396.643200
   1248   1246   1265     1   109.8800469 414.216000
   1249   1245   1252     1   110.2600474 425.931200
   1250   1247   1251     1   109.4300470 427.604800
   1250   1247   1260     1   109.5800467 425.931200
   1253   1258   1259     1   107.2600461 396.643200
   1256   1253   1258     1   110.2600474 425.931200
   1256   1253   1257     1   108.4600466 328.025600
   1257   1253   1258     1   110.2600474 425.931200
   1262   1243   1263     1   110.2600474 425.931200
   1266   1267   1286     1   109.5600471 388.275200
   1266   1277   1280     1   109.5600471 388.275200
   1266   1277   1281     1   109.5600471 388.275200
   1267   1266   1268     1   109.5600471 388.275200
   1267   1269   1273     1   109.5600471 388.275200
   1267   1287   1288     1   107.2600461 396.643200
   1268   1266   1277     1   109.5600471 388.275200
   1268   1266   1284     1   109.7800468 425.094400
   1269   1267   1286     1   109.5600471 388.275200
   1269   1270   1272     1   109.5600471 388.275200
   1269   1276   1278     1   107.2600461 396.643200
   1270   1269   1273     1   109.5600471 388.275200
   1270   1271   1274     1   110.2200475 386.601600
   1270   1289   1279     1   109.2900470 396.643200
   1271   1270   1272     1   109.5600471 388.275200
   1271   1275   1285     1   107.2600461 396.643200
   1272   1270   1289     1   109.8800469 414.216000
   1273   1269   1276     1   110.2600474 425.931200
   1274   1271   1275     1   109.4300470 427.604800
   1274   1271   1284     1   109.5800467 425.931200
   1277   1282   1283     1   107.2600461 396.643200
   1280   1277   1282     1   110.2600474 425.931200
   1280   1277   1281     1   108.4600466 328.025600
   1281   1277   1282     1   110.2600474 425.931200
   1286   1267   1287     1   110.2600474 425.931200
   1290   1292   1293     1   108.8800464 416.726400
   1290   1292   1295     1   108.8800464 416.726400
   1291   1290   1292     1   117.6800502 383.254400
   1292   1294   1296     1   109.5600471 388.275200
   1292   1294   1297     1   109.5600471 388.275200
   1293   1292   1294     1   109.5600471 388.275200
   1293   1292   1295     1   108.4600466 328.025600
   1294   1292   1295     1   109.5600471 388.275200
   1296   1294   1298     1   109.8800469 414.216000
   1296   1294   1297     1   108.4600466 328.025600
   1297   1294   1298     1   109.8800469 414.216000
   1298   1299   1308     1   109.8800469 414.216000
   1298   1299   1309     1   109.8800469 414.216000
   1298   1300   1301     1   109.8800469 414.216000
   1298   1300   1303     1   109.8800469 414.216000
   1299   1310   1311     1   109.8000471 387.438400
   1299   1310   1312     1   109.8000471 387.438400
   1300   1302   1304     1   109.8000471 387.438400
   1300   1302   1305     1   109.8000471 387.438400
   1301   1300   1302     1   109.5600471 388.275200
   1301   1300   1303     1   108.4600466 328.025600
   1302   1300   1303     1   109.5600471 388.275200
   1304   1302   1306     1   108.7700466 392.459200
   1304   1302   1305     1   107.5800459 329.699200
   1305   1302   1306     1   108.7700466 392.459200
   1306   1338   1328     1   119.3800509 410.868800
   1308   1299   1310     1   109.5600471 388.275200
   1308   1299   1309     1   108.4600466 328.025600
   1309   1299   1310     1   109.5600471 388.275200
   1311   1310   1313     1   108.7700466 392.459200
   1311   1310   1312     1   107.5800459 329.699200
   1312   1310   1313     1   108.7700466 392.459200
   1313   1362   1352     1   119.3800509 410.868800
   1315   1316   1335     1   109.5600471 388.275200
   1315   1326   1329     1   109.5600471 388.275200
   1315   1326   1330     1   109.5600471 388.275200
   1316   1318   1322     1   109.5600471 388.275200
   1316   1336   1337     1   107.2600461 396.643200
   1316   1315   1317     1   109.5600471 388.275200
   1317   1315   1326     1   109.5600471 388.275200
   1317   1315   1333     1   109.7800468 425.094400
   1318   1319   1321     1   109.5600471 388.275200
   1318   1325   1327     1   107.2600461 396.643200
   1318   1316   1335     1   109.5600471 388.275200
   1319   1320   1323     1   110.2200475 386.601600
   1319   1338   1328     1   109.2900470 396.643200
   1319   1318   1322     1   109.5600471 388.275200
   1320   1324   1334     1   107.2600461 396.643200
   1320   1319   1321     1   109.5600471 388.275200
   1321   1319   1338     1   109.8800469 414.216000
   1322   1318   1325     1   110.2600474 425.931200
   1323   1320   1324     1   109.4300470 427.604800
   1323   1320   1333     1   109.5800467 425.931200
   1326   1331   1332     1   107.2600461 396.643200
   1329   1326   1331     1   110.2600474 425.931200
   1329   1326   1330     1   108.4600466 328.025600
   1330   1326   1331     1   110.2600474 425.931200
   1335   1316   1336     1   110.2600474 425.931200
   1339   1340   1359     1   109.5600471 388.275200
   1339   1350   1353     1   109.5600471 388.275200
   1339   1350   1354     1   109.5600471 388.275200
   1340   1342   1346     1   109.5600471 388.275200
   1340   1360   1361     1   107.2600461 396.643200
   1340   1339   1341     1   109.5600471 388.275200
   1341   1339   1350     1   109.5600471 388.275200
   1341   1339   1357     1   109.7800468 425.094400
   1342   1343   1345     1   109.5600471 388.275200
   1342   1349   1351     1   107.2600461 396.643200
   1342   1340   1359     1   109.5600471 388.275200
   1343   1344   1347     1   110.2200475 386.601600
   1343   1362   1352     1   109.2900470 396.643200
   1343   1342   1346     1   109.5600471 388.275200
   1344   1348   1358     1   107.2600461 396.643200
   1344   1343   1345     1   109.5600471 388.275200
   1345   1343   1362     1   109.8800469 414.216000
   1346   1342   1349     1   110.2600474 425.931200
   1347   1344   1348     1   109.4300470 427.604800
   1347   1344   1357     1   109.5800467 425.931200
   1350   1355   1356     1   107.2600461 396.643200
   1353   1350   1355     1   110.2600474 425.931200
   1353   1350   1354     1   108.4600466 328.025600
   1354   1350   1355     1   110.2600474 425.931200
   1359   1340   1360     1   110.2600474 425.931200
   1363   1365   1366     1   108.8800464 416.726400
   1363   1365   1368     1   108.8800464 416.726400
   1364   1363   1365     1   117.6800502 383.254400
   1365   1367   1369     1   109.5600471 388.275200
   1365   1367   1370     1   109.5600471 388.275200
   1366   1365   1367     1   109.5600471 388.275200
   1366   1365   1368     1   108.4600466 328.025600
   1367   1365   1368     1   109.5600471 388.275200
   1369   1367   1371     1   109.8800469 414.216000
   1369   1367   1370     1   108.4600466 328.025600
   1370   1367   1371     1   109.8800469 414.216000
   1371   1372   1381     1   109.8800469 414.216000
   1371   1372   1382     1   109.8800469 414.216000
   1371   1373   1374     1   109.8800469 414.216000
   1371   1373   1376     1   109.8800469 414.216000
   1372   1383   1384     1   109.8000471 387.438400
   1372   1383   1385     1   109.8000471 387.438400
   1373   1375   1377     1   109.8000471 387.438400
   1373   1375   1378     1   109.8000471 387.438400
   1374   1373   1375     1   109.5600471 388.275200
   1374   1373   1376     1   108.4600466 328.025600
   1375   1373   1376     1   109.5600471 388.275200
   1377   1375   1379     1   108.7700466 392.459200
   1377   1375   1378     1   107.5800459 329.699200
   1378   1375   1379     1   108.7700466 392.459200
   1379   1411   1401     1   119.3800509 410.868800
   1381   1372   1383     1   109.5600471 388.275200
   1381   1372   1382     1   108.4600466 328.025600
   1382   1372   1383     1   109.5600471 388.275200
   1384   1383   1386     1   108.7700466 392.459200
   1384   1383   1385     1   107.5800459 329.699200
   1385   1383   1386     1   108.7700466 392.459200
   1386   1435   1425     1   119.3800509 410.868800
   1388   1389   1408     1   109.5600471 388.275200
   1388   1399   1402     1   109.5600471 388.275200
   1388   1399   1403     1   109.5600471 388.275200
   1389   1388   1390     1   109.5600471 388.275200
   1389   1391   1395     1   109.5600471 388.275200
   1389   1409   1410     1   107.2600461 396.643200
   1390   1388   1399     1   109.5600471 388.275200
   1390   1388   1406     1   109.7800468 425.094400
   1391   1389   1408     1   109.5600471 388.275200
   1391   1392   1394     1   109.5600471 388.275200
   1391   1398   1400     1   107.2600461 396.643200
   1392   1391   1395     1   109.5600471 388.275200
   1392   1393   1396     1   110.2200475 386.601600
   1392   1411   1401     1   109.2900470 396.643200
   1393   1392   1394     1   109.5600471 388.275200
   1393   1397   1407     1   107.2600461 396.643200
   1394   1392   1411     1   109.8800469 414.216000
   1395   1391   1398     1   110.2600474 425.931200
   1396   1393   1397     1   109.4300470 427.604800
   1396   1393   1406     1   109.5800467 425.931200
   1399   1404   1405     1   107.2600461 396.643200
   1402   1399   1404     1   110.2600474 425.931200
   1402   1399   1403     1   108.4600466 328.025600
   1403   1399   1404     1   110.2600474 425.931200
   1408   1389   1409     1   110.2600474 425.931200
   1412   1413   1432     1   109.5600471 388.275200
   1412   1423   1426     1   109.5600471 388.275200
   1412   1423   1427     1   109.5600471 388.275200
   1413   1412   1414     1   109.5600471 388.275200
   1413   1415   1419     1   109.5600471 388.275200
   1413   1433   1434     1   107.2600461 396.643200
   1414   1412   1423     1   109.5600471 388.275200
   1414   1412   1430     1   109.7800468 425.094400
   1415   1413   1432     1   109.5600471 388.275200
   1415   1416   1418     1   109.5600471 388.275200
   1415   1422   1424     1   107.2600461 396.643200
   1416   1415   1419     1   109.5600471 388.275200
   1416   1417   1420     1   110.2200475 386.601600
   1416   1435   1425     1   109.2900470 396.643200
   1417   1416   1418     1   109.5600471 388.275200
   1417   1421   1431     1   107.2600461 396.643200
   1418   1416   1435     1   109.8800469 414.216000
   1419   1415   1422     1   110.2600474 425.931200
   1420   1417   1421     1   109.4300470 427.604800
   1420   1417   1430     1   109.5800467 425.931200
   1423   1428   1429     1   107.2600461 396.643200
   1426   1423   1428     1   110.2600474 425.931200
   1426   1423   1427     1   108.4600466 328.025600
   1427   1423   1428     1   110.2600474 425.931200
   1432   1413   1433     1   110.2600474 425.931200
   1436   1438   1439     1   108.8800464 416.726400
   1436   1438   1441     1   108.8800464 416.726400
   1437   1436   1438     1   117.6800502 383.254400
   1438   1440   1442     1   109.5600471 388.275200
   1438   1440   1443     1   109.5600471 388.275200
   1439   1438   1440     1   109.5600471 388.275200
   1439   1438   1441     1   108.4600466 328.025600
   1440   1438   1441     1   109.5600471 388.275200
   1442   1440   1444     1   109.8800469 414.216000
   1442   1440   1443     1   108.4600466 328.025600
   1443   1440   1444     1   109.8800469 414.216000
   1444   1445   1454     1   109.8800469 414.216000
   1444   1445   1455     1   109.8800469 414.216000
   1444   1446   1447     1   109.8800469 414.216000
   1444   1446   1449     1   109.8800469 414.216000
   1445   1456   1457     1   109.8000471 387.438400
   1445   1456   1458     1   109.8000471 387.438400
   1446   1448   1450     1   109.8000471 387.438400
   1446   1448   1451     1   109.8000471 387.438400
   1447   1446   1448     1   109.5600471 388.275200
   1447   1446   1449     1   108.4600466 328.025600
   1448   1446   1449     1   109.5600471 388.275200
   1450   1448   1452     1   108.7700466 392.459200
   1450   1448   1451     1   107.5800459 329.699200
   1451   1448   1452     1   108.7700466 392.459200
   1452   1484   1474     1   119.3800509 410.868800
   1454   1445   1456     1   109.5600471 388.275200
   1454   1445   1455     1   108.4600466 328.025600
   1455   1445   1456     1   109.5600471 388.275200
   1457   1456   1459     1   108.7700466 392.459200
   1457   1456   1458     1   107.5800459 329.699200
   1458   1456   1459     1   108.7700466 392.459200
   1459   1508   1498     1   119.3800509 410.868800
   1461   1462   1481     1   109.5600471 388.275200
   1461   1472   1475     1   109.5600471 388.275200
   1461   1472   1476     1   109.5600471 388.275200
   1462   1464   1468     1   109.5600471 388.275200
   1462   1482   1483     1   107.2600461 396.643200
   1462   1461   1463     1   109.5600471 388.275200
   1463   1461   1472     1   109.5600471 388.275200
   1463   1461   1479     1   109.7800468 425.094400
   1464   1465   1467     1   109.5600471 388.275200
   1464   1471   1473     1   107.2600461 396.643200
   1464   1462   1481     1   109.5600471 388.275200
   1465   1466   1469     1   110.2200475 386.601600
   1465   1484   1474     1   109.2900470 396.643200
   1465   1464   1468     1   109.5600471 388.275200
   1466   1470   1480     1   107.2600461 396.643200
   1466   1465   1467     1   109.5600471 388.275200
   1467   1465   1484     1   109.8800469 414.216000
   1468   1464   1471     1   110.2600474 425.931200
   1469   1466   1470     1   109.4300470 427.604800
   1469   1466   1479     1   109.5800467 425.931200
   1472   1477   1478     1   107.2600461 396.643200
   1475   1472   1477     1   110.2600474 425.931200
   1475   1472   1476     1   108.4600466 328.025600
   1476   1472   1477     1   110.2600474 425.931200
   1481   1462   1482     1   110.2600474 425.931200
   1485   1486   1505     1   109.5600471 388.275200
   1485   1496   1499     1   109.5600471 388.275200
   1485   1496   1500     1   109.5600471 388.275200
   1486   1488   1492     1   109.5600471 388.275200
   1486   1506   1507     1   107.2600461 396.643200
   1486   1485   1487     1   109.5600471 388.275200
   1487   1485   1496     1   109.5600471 388.275200
   1487   1485   1503     1   109.7800468 425.094400
   1488   1489   1491     1   109.5600471 388.275200
   1488   1495   1497     1   107.2600461 396.643200
   1488   1486   1505     1   109.5600471 388.275200
   1489   1490   1493     1   110.2200475 386.601600
   1489   1508   1498     1   109.2900470 396.643200
   1489   1488   1492     1   109.5600471 388.275200
   1490   1494   1504     1   107.2600461 396.643200
   1490   1489   1491     1   109.5600471 388.275200
   1491   1489   1508     1   109.8800469 414.216000
   1492   1488   1495     1   110.2600474 425.931200
   1493   1490   1494     1   109.4300470 427.604800
   1493   1490   1503     1   109.5800467 425.931200
   1496   1501   1502     1   107.2600461 396.643200
   1499   1496   1501     1   110.2600474 425.931200
   1499   1496   1500     1   108.4600466 328.025600
   1500   1496   1501     1   110.2600474 425.931200
   1505   1486   1506     1   110.2600474 425.931200

[ dihedrals ]
;    ai     aj     ak     al funct         c0         c1         c2         c3         c4         c5
      1      4      7     15     1  180.0000771  2.0083200  2
      1      4      7     15     1  0.0000000  1.2552000  3
      1      4      7     18     1  180.0000771  2.0083200  2
      1      4      7     18     1  0.0000000  1.2552000  3
      1      8      9     30     1  180.0000771  2.0083200  2
      1      8      9     30     1  0.0000000  1.2552000  3
      1      8     12     27     1  180.0000771  2.0083200  2
      1      8     12     27     1  0.0000000  1.2552000  3
      4      1      8      9     1  180.0000771  2.0083200  2
      4      1      8      9     1  0.0000000  1.2552000  3
      4      1      8     12     1  180.0000771  2.0083200  2
      4      1      8     12     1  0.0000000  1.2552000  3
      4      7     15     21     1  180.0000771  2.0083200  2
      4      7     15     21     1  0.0000000  1.2552000  3
      4      7     18     24     1  180.0000771  2.0083200  2
      4      7     18     24     1  0.0000000  1.2552000  3
      8      1      4      7     1  0.0000000  0.6508444  3
      7     15     21     35     1  0.0000000  0.6508444  3
      7     18     24     36     1  0.0000000  0.6508444  3
      8      9     30     34     1  0.0000000  0.6508444  3
      8     12     27     33     1  0.0000000  0.6508444  3
      9      8     12     27     1  180.0000771  2.0083200  2
      9      8     12     27     1  0.0000000  1.2552000  3
      9     30     34     40     1  180.0000771  0.0000000  2
      9     30     34     89     1  0.0000000  0.2928800  2
      9     30     34     89     1  0.0000000  0.4184000  4
     12      8      9     30     1  180.0000771  2.0083200  2
     12      8      9     30     1  0.0000000  1.2552000  3
     12     27     33     37     1  180.0000771  0.0000000  2
     12     27     33     64     1  0.0000000  0.2928800  2
     12     27     33     64     1  0.0000000  0.4184000  4
     15      7     18     24     1  180.0000771  2.0083200  2
     15      7     18     24     1  0.0000000  1.2552000  3
     15     21     35     38     1  180.0000771  0.0000000  2
     15     21     35    114     1  0.0000000  0.2928800  2
     15     21     35    114     1  0.0000000  0.4184000  4
     18      7     15     21     1  180.0000771  2.0083200  2
     18      7     15     21     1  0.0000000  1.2552000  3
     18     24     36     39     1  180.0000771  0.0000000  2
     18     24     36    139     1  0.0000000  0.2928800  2
     18     24     36    139     1  0.0000000  0.4184000  4
     21     35    114     94     1  180.0000771  6.2760000  1
     21     35    114     94     1  0.0000000  0.0000000  2
     24     36    139    119     1  180.0000771  6.2760000  1
     24     36    139    119     1  0.0000000  0.0000000  2
     27     33     64     44     1  180.0000771  6.2760000  1
     27     33     64     44     1  0.0000000  0.0000000  2
     30     34     89     69     1  180.0000771  6.2760000  1
     30     34     89     69     1  0.0000000  0.0000000  2
     33     64     44     41     1  0.0000000  2.2175200  1
     33     64     44     41     1  0.0000000  0.0000000  2
     33     64     44     41     1  180.0000771  0.6276000  3
     33     64     44     41     1  180.0000771  2.0920000  4
     34     89     69     66     1  0.0000000  2.2175200  1
     34     89     69     66     1  0.0000000  0.0000000  2
     34     89     69     66     1  180.0000771  0.6276000  3
     34     89     69     66     1  180.0000771  2.0920000  4
     35    114     94     91     1  0.0000000  2.2175200  1
     35    114     94     91     1  0.0000000  0.0000000  2
     35    114     94     91     1  180.0000771  0.6276000  3
     35    114     94     91     1  180.0000771  2.0920000  4
     36    139    119    116     1  0.0000000  2.2175200  1
     36    139    119    116     1  0.0000000  0.0000000  2
     36    139    119    116     1  180.0000771  0.6276000  3
     36    139    119    116     1  180.0000771  2.0920000  4
     37     33     64     44     1  180.0000771  10.4600000  2
     38     35    114     94     1  180.0000771  10.4600000  2
     39     36    139    119     1  180.0000771  10.4600000  2
     40     34     89     69     1  180.0000771  10.4600000  2
     41     47     48     57     1  180.0000771  2.0083200  2
     41     47     48     57     1  0.0000000  1.2552000  3
     41     47     51     54     1  180.0000771  2.0083200  2
     41     47     51     54     1  0.0000000  1.2552000  3
     44     41     47     48     1  180.0000771  2.0083200  2
     44     41     47     48     1  0.0000000  1.2552000  3
     44     41     47     51     1  180.0000771  2.0083200  2
     44     41     47     51     1  0.0000000  1.2552000  3
     47     41     44     64     1  0.0000000  0.6508444  3
     47     48     57     61     1  0.0000000  0.6508444  3
     47     51     54     60     1  0.0000000  0.6508444  3
     48     47     51     54     1  180.0000771  2.0083200  2
     48     47     51     54     1  0.0000000  1.2552000  3
     48     57     61     63     1  180.0000771  0.0000000  2
     48     57     61    189     1  0.0000000  0.2928800  2
     48     57     61    189     1  0.0000000  0.4184000  4
     51     47     48     57     1  180.0000771  2.0083200  2
     51     47     48     57     1  0.0000000  1.2552000  3
     51     54     60     62     1  180.0000771  0.0000000  2
     51     54     60    164     1  0.0000000  0.2928800  2
     51     54     60    164     1  0.0000000  0.4184000  4
     54     60    164    144     1  180.0000771  6.2760000  1
     54     60    164    144     1  0.0000000  0.0000000  2
     57     61    189    169     1  180.0000771  6.2760000  1
     57     61    189    169     1  0.0000000  0.0000000  2
     60    164    144    141     1  0.0000000  2.2175200  1
     60    164    144    141     1  0.0000000  0.0000000  2
     60    164    144    141     1  180.0000771  0.6276000  3
     60    164    144    141     1  180.0000771  2.0920000  4
     61    189    169    166     1  0.0000000  2.2175200  1
     61    189    169    166     1  0.0000000  0.0000000  2
     61    189    169    166     1  180.0000771  0.6276000  3
     61    189    169    166     1  180.0000771  2.0920000  4
     62     60    164    144     1  180.0000771  10.4600000  2
     63     61    189    169     1  180.0000771  10.4600000  2
     66     72     73     82     1  180.0000771  2.0083200  2
     66     72     73     82     1  0.0000000  1.2552000  3
     66     72     76     79     1  180.0000771  2.0083200  2
     66     72     76     79     1  0.0000000  1.2552000  3
     69     66     72     73     1  180.0000771  2.0083200  2
     69     66     72     73     1  0.0000000  1.2552000  3
     69     66     72     76     1  180.0000771  2.0083200  2
     69     66     72     76     1  0.0000000  1.2552000  3
     72     66     69     89     1  0.0000000  0.6508444  3
     72     73     82     86     1  0.0000000  0.6508444  3
     72     76     79     85     1  0.0000000  0.6508444  3
     73     72     76     79     1  180.0000771  2.0083200  2
     73     72     76     79     1  0.0000000  1.2552000  3
     73     82     86     88     1  180.0000771  0.0000000  2
     73     82     86    239     1  0.0000000  0.2928800  2
     73     82     86    239     1  0.0000000  0.4184000  4
     76     72     73     82     1  180.0000771  2.0083200  2
     76     72     73     82     1  0.0000000  1.2552000  3
     76     79     85     87     1  180.0000771  0.0000000  2
     76     79     85    214     1  0.0000000  0.2928800  2
     76     79     85    214     1  0.0000000  0.4184000  4
     79     85    214    194     1  180.0000771  6.2760000  1
     79     85    214    194     1  0.0000000  0.0000000  2
     82     86    239    219     1  180.0000771  6.2760000  1
     82     86    239    219     1  0.0000000  0.0000000  2
     85    214    194    191     1  0.0000000  2.2175200  1
     85    214    194    191     1  0.0000000  0.0000000  2
     85    214    194    191     1  180.0000771  0.6276000  3
     85    214    194    191     1  180.0000771  2.0920000  4
     86    239    219    216     1  0.0000000  2.2175200  1
     86    239    219    216     1  0.0000000  0.0000000  2
     86    239    219    216     1  180.0000771  0.6276000  3
     86    239    219    216     1  180.0000771  2.0920000  4
     87     85    214    194     1  180.0000771  10.4600000  2
     88     86    239    219     1  180.0000771  10.4600000  2
     91     97     98    107     1  180.0000771  2.0083200  2
     91     97     98    107     1  0.0000000  1.2552000  3
     91     97    101    104     1  180.0000771  2.0083200  2
     91     97    101    104     1  0.0000000  1.2552000  3
     94     91     97     98     1  180.0000771  2.0083200  2
     94     91     97     98     1  0.0000000  1.2552000  3
     94     91     97    101     1  180.0000771  2.0083200  2
     94     91     97    101     1  0.0000000  1.2552000  3
     97     91     94    114     1  0.0000000  0.6508444  3
     97     98    107    111     1  0.0000000  0.6508444  3
     97    101    104    110     1  0.0000000  0.6508444  3
     98     97    101    104     1  180.0000771  2.0083200  2
     98     97    101    104     1  0.0000000  1.2552000  3
     98    107    111    113     1  180.0000771  0.0000000  2
     98    107    111    289     1  0.0000000  0.2928800  2
     98    107    111    289     1  0.0000000  0.4184000  4
    101     97     98    107     1  180.0000771  2.0083200  2
    101     97     98    107     1  0.0000000  1.2552000  3
    101    104    110    112     1  180.0000771  0.0000000  2
    101    104    110    264     1  0.0000000  0.2928800  2
    101    104    110    264     1  0.0000000  0.4184000  4
    104    110    264    244     1  180.0000771  6.2760000  1
    104    110    264    244     1  0.0000000  0.0000000  2
    107    111    289    269     1  180.0000771  6.2760000  1
    107    111    289    269     1  0.0000000  0.0000000  2
    110    264    244    241     1  0.0000000  2.2175200  1
    110    264    244    241     1  0.0000000  0.0000000  2
    110    264    244    241     1  180.0000771  0.6276000  3
    110    264    244    241     1  180.0000771  2.0920000  4
    111    289    269    266     1  0.0000000  2.2175200  1
    111    289    269    266     1  0.0000000  0.0000000  2
    111    289    269    266     1  180.0000771  0.6276000  3
    111    289    269    266     1  180.0000771  2.0920000  4
    112    110    264    244     1  180.0000771  10.4600000  2
    113    111    289    269     1  180.0000771  10.4600000  2
    116    122    123    132     1  180.0000771  2.0083200  2
    116    122    123    132     1  0.0000000  1.2552000  3
    116    122    126    129     1  180.0000771  2.0083200  2
    116    122    126    129     1  0.0000000  1.2552000  3
    119    116    122    123     1  180.0000771  2.0083200  2
    119    116    122    123     1  0.0000000  1.2552000  3
    119    116    122    126     1  180.0000771  2.0083200  2
    119    116    122    126     1  0.0000000  1.2552000  3
    122    116    119    139     1  0.0000000  0.6508444  3
    122    123    132    136     1  0.0000000  0.6508444  3
    122    126    129    135     1  0.0000000  0.6508444  3
    123    122    126    129     1  180.0000771  2.0083200  2
    123    122    126    129     1  0.0000000  1.2552000  3
    123    132    136    138     1  180.0000771  0.0000000  2
    123    132    136    339     1  0.0000000  0.2928800  2
    123    132    136    339     1  0.0000000  0.4184000  4
    126    122    123    132     1  180.0000771  2.0083200  2
    126    122    123    132     1  0.0000000  1.2552000  3
    126    129    135    137     1  180.0000771  0.0000000  2
    126    129    135    314     1  0.0000000  0.2928800  2
    126    129    135    314     1  0.0000000  0.4184000  4
    129    135    314    294     1  180.0000771  6.2760000  1
    129    135    314    294     1  0.0000000  0.0000000  2
    132    136    339    319     1  180.0000771  6.2760000  1
    132    136    339    319     1  0.0000000  0.0000000  2
    135    314    294    291     1  0.0000000  2.2175200  1
    135    314    294    291     1  0.0000000  0.0000000  2
    135    314    294    291     1  180.0000771  0.6276000  3
    135    314    294    291     1  180.0000771  2.0920000  4
    136    339    319    316     1  0.0000000  2.2175200  1
    136    339    319    316     1  0.0000000  0.0000000  2
    136    339    319    316     1  180.0000771  0.6276000  3
    136    339    319    316     1  180.0000771  2.0920000  4
    137    135    314    294     1  180.0000771  10.4600000  2
    138    136    339    319     1  180.0000771  10.4600000  2
    141    147    148    157     1  180.0000771  2.0083200  2
    141    147    148    157     1  0.0000000  1.2552000  3
    141    147    151    154     1  180.0000771  2.0083200  2
    141    147    151    154     1  0.0000000  1.2552000  3
    144    141    147    148     1  180.0000771  2.0083200  2
    144    141    147    148     1  0.0000000  1.2552000  3
    144    141    147    151     1  180.0000771  2.0083200  2
    144    141    147    151     1  0.0000000  1.2552000  3
    147    141    144    164     1  0.0000000  0.6508444  3
    147    148    157    161     1  0.0000000  0.6508444  3
    147    151    154    160     1  0.0000000  0.6508444  3
    148    147    151    154     1  180.0000771  2.0083200  2
    148    147    151    154     1  0.0000000  1.2552000  3
    148    157    161    163     1  180.0000771  0.0000000  2
    148    157    161    414     1  0.0000000  0.2928800  2
    148    157    161    414     1  0.0000000  0.4184000  4
    151    147    148    157     1  180.0000771  2.0083200  2
    151    147    148    157     1  0.0000000  1.2552000  3
    151    154    160    341     1  0.0000000  0.2928800  2
    151    154    160    341     1  0.0000000  0.4184000  4
    151    154    160    162     1  180.0000771  0.0000000  2
    154    160    341    343     1  180.0000771  6.2760000  1
    154    160    341    343     1  0.0000000  0.0000000  2
    157    161    414    416     1  180.0000771  6.2760000  1
    157    161    414    416     1  0.0000000  0.0000000  2
    160    341    343    345     1  0.0000000  2.2175200  1
    160    341    343    345     1  0.0000000  0.0000000  2
    160    341    343    345     1  180.0000771  0.6276000  3
    160    341    343    345     1  180.0000771  2.0920000  4
    161    414    416    418     1  0.0000000  2.2175200  1
    161    414    416    418     1  0.0000000  0.0000000  2
    161    414    416    418     1  180.0000771  0.6276000  3
    161    414    416    418     1  180.0000771  2.0920000  4
    162    160    341    343     1  180.0000771  10.4600000  2
    163    161    414    416     1  180.0000771  10.4600000  2
    166    172    173    182     1  180.0000771  2.0083200  2
    166    172    173    182     1  0.0000000  1.2552000  3
    166    172    176    179     1  180.0000771  2.0083200  2
    166    172    176    179     1  0.0000000  1.2552000  3
    169    166    172    173     1  180.0000771  2.0083200  2
    169    166    172    173     1  0.0000000  1.2552000  3
    169    166    172    176     1  180.0000771  2.0083200  2
    169    166    172    176     1  0.0000000  1.2552000  3
    172    166    169    189     1  0.0000000  0.6508444  3
    172    173    182    186     1  0.0000000  0.6508444  3
    172    176    179    185     1  0.0000000  0.6508444  3
    173    172    176    179     1  180.0000771  2.0083200  2
    173    172    176    179     1  0.0000000  1.2552000  3
    173    182    186    188     1  180.0000771  0.0000000  2
    173    182    186    560     1  0.0000000  0.2928800  2
    173    182    186    560     1  0.0000000  0.4184000  4
    176    172    173    182     1  180.0000771  2.0083200  2
    176    172    173    182     1  0.0000000  1.2552000  3
    176    179    185    487     1  0.0000000  0.2928800  2
    176    179    185    487     1  0.0000000  0.4184000  4
    176    179    185    187     1  180.0000771  0.0000000  2
    179    185    487    489     1  180.0000771  6.2760000  1
    179    185    487    489     1  0.0000000  0.0000000  2
    182    186    560    562     1  180.0000771  6.2760000  1
    182    186    560    562     1  0.0000000  0.0000000  2
    185    487    489    491     1  0.0000000  2.2175200  1
    185    487    489    491     1  0.0000000  0.0000000  2
    185    487    489    491     1  180.0000771  0.6276000  3
    185    487    489    491     1  180.0000771  2.0920000  4
    186    560    562    564     1  0.0000000  2.2175200  1
    186    560    562    564     1  0.0000000  0.0000000  2
    186    560    562    564     1  180.0000771  0.6276000  3
    186    560    562    564     1  180.0000771  2.0920000  4
    187    185    487    489     1  180.0000771  10.4600000  2
    188    186    560    562     1  180.0000771  10.4600000  2
    191    197    198    207     1  180.0000771  2.0083200  2
    191    197    198    207     1  0.0000000  1.2552000  3
    191    197    201    204     1  180.0000771  2.0083200  2
    191    197    201    204     1  0.0000000  1.2552000  3
    194    191    197    198     1  180.0000771  2.0083200  2
    194    191    197    198     1  0.0000000  1.2552000  3
    194    191    197    201     1  180.0000771  2.0083200  2
    194    191    197    201     1  0.0000000  1.2552000  3
    197    191    194    214     1  0.0000000  0.6508444  3
    197    198    207    211     1  0.0000000  0.6508444  3
    197    201    204    210     1  0.0000000  0.6508444  3
    198    197    201    204     1  180.0000771  2.0083200  2
    198    197    201    204     1  0.0000000  1.2552000  3
    198    207    211    213     1  180.0000771  0.0000000  2
    198    207    211    706     1  0.0000000  0.2928800  2
    198    207    211    706     1  0.0000000  0.4184000  4
    201    197    198    207     1  180.0000771  2.0083200  2
    201    197    198    207     1  0.0000000  1.2552000  3
    201    204    210    633     1  0.0000000  0.2928800  2
    201    204    210    633     1  0.0000000  0.4184000  4
    201    204    210    212     1  180.0000771  0.0000000  2
    204    210    633    635     1  180.0000771  6.2760000  1
    204    210    633    635     1  0.0000000  0.0000000  2
    207    211    706    708     1  180.0000771  6.2760000  1
    207    211    706    708     1  0.0000000  0.0000000  2
    210    633    635    637     1  0.0000000  2.2175200  1
    210    633    635    637     1  0.0000000  0.0000000  2
    210    633    635    637     1  180.0000771  0.6276000  3
    210    633    635    637     1  180.0000771  2.0920000  4
    211    706    708    710     1  0.0000000  2.2175200  1
    211    706    708    710     1  0.0000000  0.0000000  2
    211    706    708    710     1  180.0000771  0.6276000  3
    211    706    708    710     1  180.0000771  2.0920000  4
    212    210    633    635     1  180.0000771  10.4600000  2
    213    211    706    708     1  180.0000771  10.4600000  2
    216    222    223    232     1  180.0000771  2.0083200  2
    216    222    223    232     1  0.0000000  1.2552000  3
    216    222    226    229     1  180.0000771  2.0083200  2
    216    222    226    229     1  0.0000000  1.2552000  3
    219    216    222    223     1  180.0000771  2.0083200  2
    219    216    222    223     1  0.0000000  1.2552000  3
    219    216    222    226     1  180.0000771  2.0083200  2
    219    216    222    226     1  0.0000000  1.2552000  3
    222    216    219    239     1  0.0000000  0.6508444  3
    222    223    232    236     1  0.0000000  0.6508444  3
    222    226    229    235     1  0.0000000  0.6508444  3
    223    222    226    229     1  180.0000771  2.0083200  2
    223    222    226    229     1  0.0000000  1.2552000  3
    223    232    236    238     1  180.0000771  0.0000000  2
    223    232    236    852     1  0.0000000  0.2928800  2
    223    232    236    852     1  0.0000000  0.4184000  4
    226    222    223    232     1  180.0000771  2.0083200  2
    226    222    223    232     1  0.0000000  1.2552000  3
    226    229    235    779     1  0.0000000  0.2928800  2
    226    229    235    779     1  0.0000000  0.4184000  4
    226    229    235    237     1  180.0000771  0.0000000  2
    229    235    779    781     1  180.0000771  6.2760000  1
    229    235    779    781     1  0.0000000  0.0000000  2
    232    236    852    854     1  180.0000771  6.2760000  1
    232    236    852    854     1  0.0000000  0.0000000  2
    235    779    781    783     1  0.0000000  2.2175200  1
    235    779    781    783     1  0.0000000  0.0000000  2
    235    779    781    783     1  180.0000771  0.6276000  3
    235    779    781    783     1  180.0000771  2.0920000  4
    236    852    854    856     1  0.0000000  2.2175200  1
    236    852    854    856     1  0.0000000  0.0000000  2
    236    852    854    856     1  180.0000771  0.6276000  3
    236    852    854    856     1  180.0000771  2.0920000  4
    237    235    779    781     1  180.0000771  10.4600000  2
    238    236    852    854     1  180.0000771  10.4600000  2
    241    247    248    257     1  180.0000771  2.0083200  2
    241    247    248    257     1  0.0000000  1.2552000  3
    241    247    251    254     1  180.0000771  2.0083200  2
    241    247    251    254     1  0.0000000  1.2552000  3
    244    241    247    248     1  180.0000771  2.0083200  2
    244    241    247    248     1  0.0000000  1.2552000  3
    244    241    247    251     1  180.0000771  2.0083200  2
    244    241    247    251     1  0.0000000  1.2552000  3
    247    241    244    264     1  0.0000000  0.6508444  3
    247    248    257    261     1  0.0000000  0.6508444  3
    247    251    254    260     1  0.0000000  0.6508444  3
    248    247    251    254     1  180.0000771  2.0083200  2
    248    247    251    254     1  0.0000000  1.2552000  3
    248    257    261    263     1  180.0000771  0.0000000  2
    248    257    261    998     1  0.0000000  0.2928800  2
    248    257    261    998     1  0.0000000  0.4184000  4
    251    247    248    257     1  180.0000771  2.0083200  2
    251    247    248    257     1  0.0000000  1.2552000  3
    251    254    260    925     1  0.0000000  0.2928800  2
    251    254    260    925     1  0.0000000  0.4184000  4
    251    254    260    262     1  180.0000771  0.0000000  2
    254    260    925    927     1  180.0000771  6.2760000  1
    254    260    925    927     1  0.0000000  0.0000000  2
    257    261    998   1000     1  180.0000771  6.2760000  1
    257    261    998   1000     1  0.0000000  0.0000000  2
    260    925    927    929     1  0.0000000  2.2175200  1
    260    925    927    929     1  0.0000000  0.0000000  2
    260    925    927    929     1  180.0000771  0.6276000  3
    260    925    927    929     1  180.0000771  2.0920000  4
    261    998   1000   1002     1  0.0000000  2.2175200  1
    261    998   1000   1002     1  0.0000000  0.0000000  2
    261    998   1000   1002     1  180.0000771  0.6276000  3
    261    998   1000   1002     1  180.0000771  2.0920000  4
    262    260    925    927     1  180.0000771  10.4600000  2
    263    261    998   1000     1  180.0000771  10.4600000  2
    266    272    273    282     1  180.0000771  2.0083200  2
    266    272    273    282     1  0.0000000  1.2552000  3
    266    272    276    279     1  180.0000771  2.0083200  2
    266    272    276    279     1  0.0000000  1.2552000  3
    269    266    272    273     1  180.0000771  2.0083200  2
    269    266    272    273     1  0.0000000  1.2552000  3
    269    266    272    276     1  180.0000771  2.0083200  2
    269    266    272    276     1  0.0000000  1.2552000  3
    272    266    269    289     1  0.0000000  0.6508444  3
    272    273    282    286     1  0.0000000  0.6508444  3
    272    276    279    285     1  0.0000000  0.6508444  3
    273    272    276    279     1  180.0000771  2.0083200  2
    273    272    276    279     1  0.0000000  1.2552000  3
    273    282    286    288     1  180.0000771  0.0000000  2
    273    282    286   1144     1  0.0000000  0.2928800  2
    273    282    286   1144     1  0.0000000  0.4184000  4
    276    272    273    282     1  180.0000771  2.0083200  2
    276    272    273    282     1  0.0000000  1.2552000  3
    276    279    285   1071     1  0.0000000  0.2928800  2
    276    279    285   1071     1  0.0000000  0.4184000  4
    276    279    285    287     1  180.0000771  0.0000000  2
    279    285   1071   1073     1  180.0000771  6.2760000  1
    279    285   1071   1073     1  0.0000000  0.0000000  2
    282    286   1144   1146     1  180.0000771  6.2760000  1
    282    286   1144   1146     1  0.0000000  0.0000000  2
    285   1071   1073   1075     1  0.0000000  2.2175200  1
    285   1071   1073   1075     1  0.0000000  0.0000000  2
    285   1071   1073   1075     1  180.0000771  0.6276000  3
    285   1071   1073   1075     1  180.0000771  2.0920000  4
    286   1144   1146   1148     1  0.0000000  2.2175200  1
    286   1144   1146   1148     1  0.0000000  0.0000000  2
    286   1144   1146   1148     1  180.0000771  0.6276000  3
    286   1144   1146   1148     1  180.0000771  2.0920000  4
    287    285   1071   1073     1  180.0000771  10.4600000  2
    288    286   1144   1146     1  180.0000771  10.4600000  2
    291    297    298    307     1  180.0000771  2.0083200  2
    291    297    298    307     1  0.0000000  1.2552000  3
    291    297    301    304     1  180.0000771  2.0083200  2
    291    297    301    304     1  0.0000000  1.2552000  3
    294    291    297    298     1  180.0000771  2.0083200  2
    294    291    297    298     1  0.0000000  1.2552000  3
    294    291    297    301     1  180.0000771  2.0083200  2
    294    291    297    301     1  0.0000000  1.2552000  3
    297    291    294    314     1  0.0000000  0.6508444  3
    297    298    307    311     1  0.0000000  0.6508444  3
    297    301    304    310     1  0.0000000  0.6508444  3
    298    297    301    304     1  180.0000771  2.0083200  2
    298    297    301    304     1  0.0000000  1.2552000  3
    298    307    311    313     1  180.0000771  0.0000000  2
    298    307    311   1290     1  0.0000000  0.2928800  2
    298    307    311   1290     1  0.0000000  0.4184000  4
    301    297    298    307     1  180.0000771  2.0083200  2
    301    297    298    307     1  0.0000000  1.2552000  3
    301    304    310   1217     1  0.0000000  0.2928800  2
    301    304    310   1217     1  0.0000000  0.4184000  4
    301    304    310    312     1  180.0000771  0.0000000  2
    304    310   1217   1219     1  180.0000771  6.2760000  1
    304    310   1217   1219     1  0.0000000  0.0000000  2
    307    311   1290   1292     1  180.0000771  6.2760000  1
    307    311   1290   1292     1  0.0000000  0.0000000  2
    310   1217   1219   1221     1  0.0000000  2.2175200  1
    310   1217   1219   1221     1  0.0000000  0.0000000  2
    310   1217   1219   1221     1  180.0000771  0.6276000  3
    310   1217   1219   1221     1  180.0000771  2.0920000  4
    311   1290   1292   1294     1  0.0000000  2.2175200  1
    311   1290   1292   1294     1  0.0000000  0.0000000  2
    311   1290   1292   1294     1  180.0000771  0.6276000  3
    311   1290   1292   1294     1  180.0000771  2.0920000  4
    312    310   1217   1219     1  180.0000771  10.4600000  2
    313    311   1290   1292     1  180.0000771  10.4600000  2
    316    322    323    332     1  180.0000771  2.0083200  2
    316    322    323    332     1  0.0000000  1.2552000  3
    316    322    326    329     1  180.0000771  2.0083200  2
    316    322    326    329     1  0.0000000  1.2552000  3
    319    316    322    323     1  180.0000771  2.0083200  2
    319    316    322    323     1  0.0000000  1.2552000  3
    319    316    322    326     1  180.0000771  2.0083200  2
    319    316    322    326     1  0.0000000  1.2552000  3
    322    316    319    339     1  0.0000000  0.6508444  3
    322    323    332    336     1  0.0000000  0.6508444  3
    322    326    329    335     1  0.0000000  0.6508444  3
    323    322    326    329     1  180.0000771  2.0083200  2
    323    322    326    329     1  0.0000000  1.2552000  3
    323    332    336   1436     1  0.0000000  0.2928800  2
    323    332    336   1436     1  0.0000000  0.4184000  4
    323    332    336    338     1  180.0000771  0.0000000  2
    326    322    323    332     1  180.0000771  2.0083200  2
    326    322    323    332     1  0.0000000  1.2552000  3
    326    329    335   1363     1  0.0000000  0.2928800  2
    326    329    335   1363     1  0.0000000  0.4184000  4
    326    329    335    337     1  180.0000771  0.0000000  2
    329    335   1363   1365     1  180.0000771  6.2760000  1
    329    335   1363   1365     1  0.0000000  0.0000000  2
    332    336   1436   1438     1  180.0000771  6.2760000  1
    332    336   1436   1438     1  0.0000000  0.0000000  2
    335   1363   1365   1367     1  0.0000000  2.2175200  1
    335   1363   1365   1367     1  0.0000000  0.0000000  2
    335   1363   1365   1367     1  180.0000771  0.6276000  3
    335   1363   1365   1367     1  180.0000771  2.0920000  4
    336   1436   1438   1440     1  0.0000000  2.2175200  1
    336   1436   1438   1440     1  0.0000000  0.0000000  2
    336   1436   1438   1440     1  180.0000771  0.6276000  3
    336   1436   1438   1440     1  180.0000771  2.0920000  4
    337    335   1363   1365     1  180.0000771  10.4600000  2
    338    336   1436   1438     1  180.0000771  10.4600000  2
    341    343    345    349     1  0.0000000  0.6508444  3
    343    345    349    350     1  180.0000771  2.0083200  2
    343    345    349    350     1  0.0000000  1.2552000  3
    343    345    349    351     1  180.0000771  2.0083200  2
    343    345    349    351     1  0.0000000  1.2552000  3
    345    349    350    361     1  180.0000771  2.0083200  2
    345    349    350    361     1  0.0000000  1.2552000  3
    345    349    351    353     1  180.0000771  2.0083200  2
    345    349    351    353     1  0.0000000  1.2552000  3
    349    350    361    364     1  0.0000000  0.6508444  3
    349    351    353    357     1  0.0000000  0.6508444  3
    350    349    351    353     1  180.0000771  2.0083200  2
    350    349    351    353     1  0.0000000  1.2552000  3
    350    361    364    365     1  180.0000771  0.0000000  2
    350    361    364    413     1  180.0000771  0.0000000  2
    351    349    350    361     1  180.0000771  2.0083200  2
    351    349    350    361     1  0.0000000  1.2552000  3
    351    353    357    358     1  180.0000771  0.0000000  2
    351    353    357    389     1  180.0000771  0.0000000  2
    353    357    389    370     1  180.0000771  6.0668000  2
    353    357    389    370     1  180.0000771  1.4644000  4
    357    389    370    369     1  0.0000000  1.2552000  3
    357    389    370    371     1  0.0000000  1.2552000  3
    358    357    389    370     1  180.0000771  6.0668000  2
    358    357    389    370     1  180.0000771  1.4644000  4
    361    364    413    394     1  180.0000771  6.0668000  2
    361    364    413    394     1  180.0000771  1.4644000  4
    364    413    394    393     1  0.0000000  1.2552000  3
    364    413    394    395     1  0.0000000  1.2552000  3
    365    364    413    394     1  180.0000771  6.0668000  2
    365    364    413    394     1  180.0000771  1.4644000  4
    366    367    369    370     1  180.0000771  0.8368000  1
    366    367    369    370     1  180.0000771  1.0460000  2
    366    367    369    370     1  0.0000000  0.7531200  3
    366    367    369    376     1  0.0000000  0.6508444  3
    366    384    371    370     1  180.0000771  0.4184000  2
    366    384    371    370     1  0.0000000  1.6024720  3
    366    384    371    375     1  0.0000000  1.6038667  3
    367    366    377    382     1  0.0000000  0.6508444  3
    367    366    384    371     1  180.0000771  0.4184000  2
    367    366    384    371     1  0.0000000  1.6024720  3
    367    369    370    371     1  180.0000771  0.8368000  1
    367    369    370    371     1  180.0000771  1.0460000  2
    367    369    370    371     1  0.0000000  0.7531200  3
    367    369    370    389     1  0.0000000  0.6508444  3
    369    367    366    377     1  180.0000771  0.8368000  1
    369    367    366    377     1  180.0000771  1.0460000  2
    369    367    366    377     1  0.0000000  0.7531200  3
    369    367    366    384     1  0.0000000  0.6508444  3
    369    370    371    375     1  0.0000000  0.6508444  3
    369    370    371    384     1  0.0000000  0.6508444  3
    370    369    367    387     1  0.0000000  0.6508444  3
    371    370    369    376     1  0.0000000  0.6508444  3
    371    384    366    377     1  180.0000771  0.4184000  2
    371    384    366    377     1  0.0000000  1.6024720  3
    375    371    370    389     1  0.0000000  0.6508444  3
    376    369    367    387     1  0.0000000  4.9162000  2
    376    369    367    387     1  0.0000000  0.6024960  3
    376    369    370    389     1  0.0000000  0.6508444  3
    377    366    367    387     1  0.0000000  0.6508444  3
    382    377    366    384     1  0.0000000  4.9162000  2
    382    377    366    384     1  0.0000000  0.6024960  3
    384    366    367    387     1  0.0000000  4.9162000  2
    384    366    367    387     1  0.0000000  0.6024960  3
    384    371    370    389     1  0.0000000  0.6508444  3
    390    391    393    394     1  180.0000771  0.8368000  1
    390    391    393    394     1  180.0000771  1.0460000  2
    390    391    393    394     1  0.0000000  0.7531200  3
    390    391    393    400     1  0.0000000  0.6508444  3
    390    408    395    394     1  180.0000771  0.4184000  2
    390    408    395    394     1  0.0000000  1.6024720  3
    390    408    395    399     1  0.0000000  1.6038667  3
    391    390    401    406     1  0.0000000  0.6508444  3
    391    390    408    395     1  180.0000771  0.4184000  2
    391    390    408    395     1  0.0000000  1.6024720  3
    391    393    394    395     1  180.0000771  0.8368000  1
    391    393    394    395     1  180.0000771  1.0460000  2
    391    393    394    395     1  0.0000000  0.7531200  3
    391    393    394    413     1  0.0000000  0.6508444  3
    393    391    390    401     1  180.0000771  0.8368000  1
    393    391    390    401     1  180.0000771  1.0460000  2
    393    391    390    401     1  0.0000000  0.7531200  3
    393    391    390    408     1  0.0000000  0.6508444  3
    393    394    395    399     1  0.0000000  0.6508444  3
    393    394    395    408     1  0.0000000  0.6508444  3
    394    393    391    411     1  0.0000000  0.6508444  3
    395    394    393    400     1  0.0000000  0.6508444  3
    395    408    390    401     1  180.0000771  0.4184000  2
    395    408    390    401     1  0.0000000  1.6024720  3
    399    395    394    413     1  0.0000000  0.6508444  3
    400    393    391    411     1  0.0000000  4.9162000  2
    400    393    391    411     1  0.0000000  0.6024960  3
    400    393    394    413     1  0.0000000  0.6508444  3
    401    390    391    411     1  0.0000000  0.6508444  3
    406    401    390    408     1  0.0000000  4.9162000  2
    406    401    390    408     1  0.0000000  0.6024960  3
    408    390    391    411     1  0.0000000  4.9162000  2
    408    390    391    411     1  0.0000000  0.6024960  3
    408    395    394    413     1  0.0000000  0.6508444  3
    414    416    418    422     1  0.0000000  0.6508444  3
    416    418    422    423     1  180.0000771  2.0083200  2
    416    418    422    423     1  0.0000000  1.2552000  3
    416    418    422    424     1  180.0000771  2.0083200  2
    416    418    422    424     1  0.0000000  1.2552000  3
    418    422    423    434     1  180.0000771  2.0083200  2
    418    422    423    434     1  0.0000000  1.2552000  3
    418    422    424    426     1  180.0000771  2.0083200  2
    418    422    424    426     1  0.0000000  1.2552000  3
    422    423    434    437     1  0.0000000  0.6508444  3
    422    424    426    430     1  0.0000000  0.6508444  3
    423    434    437    438     1  180.0000771  0.0000000  2
    423    434    437    486     1  180.0000771  0.0000000  2
    423    422    424    426     1  180.0000771  2.0083200  2
    423    422    424    426     1  0.0000000  1.2552000  3
    424    426    430    431     1  180.0000771  0.0000000  2
    424    426    430    462     1  180.0000771  0.0000000  2
    424    422    423    434     1  180.0000771  2.0083200  2
    424    422    423    434     1  0.0000000  1.2552000  3
    426    430    462    443     1  180.0000771  6.0668000  2
    426    430    462    443     1  180.0000771  1.4644000  4
    430    462    443    444     1  0.0000000  1.2552000  3
    430    462    443    442     1  0.0000000  1.2552000  3
    431    430    462    443     1  180.0000771  6.0668000  2
    431    430    462    443     1  180.0000771  1.4644000  4
    434    437    486    467     1  180.0000771  6.0668000  2
    434    437    486    467     1  180.0000771  1.4644000  4
    437    486    467    468     1  0.0000000  1.2552000  3
    437    486    467    466     1  0.0000000  1.2552000  3
    438    437    486    467     1  180.0000771  6.0668000  2
    438    437    486    467     1  180.0000771  1.4644000  4
    439    440    442    443     1  180.0000771  0.8368000  1
    439    440    442    443     1  180.0000771  1.0460000  2
    439    440    442    443     1  0.0000000  0.7531200  3
    439    440    442    449     1  0.0000000  0.6508444  3
    439    457    444    448     1  0.0000000  1.6038667  3
    439    457    444    443     1  180.0000771  0.4184000  2
    439    457    444    443     1  0.0000000  1.6024720  3
    440    442    443    444     1  180.0000771  0.8368000  1
    440    442    443    444     1  180.0000771  1.0460000  2
    440    442    443    444     1  0.0000000  0.7531200  3
    440    442    443    462     1  0.0000000  0.6508444  3
    440    439    450    455     1  0.0000000  0.6508444  3
    440    439    457    444     1  180.0000771  0.4184000  2
    440    439    457    444     1  0.0000000  1.6024720  3
    442    443    444    448     1  0.0000000  0.6508444  3
    442    443    444    457     1  0.0000000  0.6508444  3
    442    440    439    450     1  180.0000771  0.8368000  1
    442    440    439    450     1  180.0000771  1.0460000  2
    442    440    439    450     1  0.0000000  0.7531200  3
    442    440    439    457     1  0.0000000  0.6508444  3
    443    442    440    460     1  0.0000000  0.6508444  3
    444    457    439    450     1  180.0000771  0.4184000  2
    444    457    439    450     1  0.0000000  1.6024720  3
    444    443    442    449     1  0.0000000  0.6508444  3
    448    444    443    462     1  0.0000000  0.6508444  3
    449    442    443    462     1  0.0000000  0.6508444  3
    449    442    440    460     1  0.0000000  4.9162000  2
    449    442    440    460     1  0.0000000  0.6024960  3
    450    439    440    460     1  0.0000000  0.6508444  3
    455    450    439    457     1  0.0000000  4.9162000  2
    455    450    439    457     1  0.0000000  0.6024960  3
    457    444    443    462     1  0.0000000  0.6508444  3
    457    439    440    460     1  0.0000000  4.9162000  2
    457    439    440    460     1  0.0000000  0.6024960  3
    463    464    466    467     1  180.0000771  0.8368000  1
    463    464    466    467     1  180.0000771  1.0460000  2
    463    464    466    467     1  0.0000000  0.7531200  3
    463    464    466    473     1  0.0000000  0.6508444  3
    463    481    468    472     1  0.0000000  1.6038667  3
    463    481    468    467     1  180.0000771  0.4184000  2
    463    481    468    467     1  0.0000000  1.6024720  3
    464    466    467    468     1  180.0000771  0.8368000  1
    464    466    467    468     1  180.0000771  1.0460000  2
    464    466    467    468     1  0.0000000  0.7531200  3
    464    466    467    486     1  0.0000000  0.6508444  3
    464    463    474    479     1  0.0000000  0.6508444  3
    464    463    481    468     1  180.0000771  0.4184000  2
    464    463    481    468     1  0.0000000  1.6024720  3
    466    467    468    472     1  0.0000000  0.6508444  3
    466    467    468    481     1  0.0000000  0.6508444  3
    466    464    463    474     1  180.0000771  0.8368000  1
    466    464    463    474     1  180.0000771  1.0460000  2
    466    464    463    474     1  0.0000000  0.7531200  3
    466    464    463    481     1  0.0000000  0.6508444  3
    467    466    464    484     1  0.0000000  0.6508444  3
    468    481    463    474     1  180.0000771  0.4184000  2
    468    481    463    474     1  0.0000000  1.6024720  3
    468    467    466    473     1  0.0000000  0.6508444  3
    472    468    467    486     1  0.0000000  0.6508444  3
    473    466    467    486     1  0.0000000  0.6508444  3
    473    466    464    484     1  0.0000000  4.9162000  2
    473    466    464    484     1  0.0000000  0.6024960  3
    474    463    464    484     1  0.0000000  0.6508444  3
    479    474    463    481     1  0.0000000  4.9162000  2
    479    474    463    481     1  0.0000000  0.6024960  3
    481    468    467    486     1  0.0000000  0.6508444  3
    481    463    464    484     1  0.0000000  4.9162000  2
    481    463    464    484     1  0.0000000  0.6024960  3
    487    489    491    495     1  0.0000000  0.6508444  3
    489    491    495    496     1  180.0000771  2.0083200  2
    489    491    495    496     1  0.0000000  1.2552000  3
    489    491    495    497     1  180.0000771  2.0083200  2
    489    491    495    497     1  0.0000000  1.2552000  3
    491    495    496    507     1  180.0000771  2.0083200  2
    491    495    496    507     1  0.0000000  1.2552000  3
    491    495    497    499     1  180.0000771  2.0083200  2
    491    495    497    499     1  0.0000000  1.2552000  3
    495    496    507    510     1  0.0000000  0.6508444  3
    495    497    499    503     1  0.0000000  0.6508444  3
    496    495    497    499     1  180.0000771  2.0083200  2
    496    495    497    499     1  0.0000000  1.2552000  3
    496    507    510    511     1  180.0000771  0.0000000  2
    496    507    510    559     1  180.0000771  0.0000000  2
    497    495    496    507     1  180.0000771  2.0083200  2
    497    495    496    507     1  0.0000000  1.2552000  3
    497    499    503    504     1  180.0000771  0.0000000  2
    497    499    503    535     1  180.0000771  0.0000000  2
    499    503    535    516     1  180.0000771  6.0668000  2
    499    503    535    516     1  180.0000771  1.4644000  4
    503    535    516    515     1  0.0000000  1.2552000  3
    503    535    516    517     1  0.0000000  1.2552000  3
    504    503    535    516     1  180.0000771  6.0668000  2
    504    503    535    516     1  180.0000771  1.4644000  4
    507    510    559    540     1  180.0000771  6.0668000  2
    507    510    559    540     1  180.0000771  1.4644000  4
    510    559    540    539     1  0.0000000  1.2552000  3
    510    559    540    541     1  0.0000000  1.2552000  3
    511    510    559    540     1  180.0000771  6.0668000  2
    511    510    559    540     1  180.0000771  1.4644000  4
    512    513    515    516     1  180.0000771  0.8368000  1
    512    513    515    516     1  180.0000771  1.0460000  2
    512    513    515    516     1  0.0000000  0.7531200  3
    512    513    515    522     1  0.0000000  0.6508444  3
    512    530    517    516     1  180.0000771  0.4184000  2
    512    530    517    516     1  0.0000000  1.6024720  3
    512    530    517    521     1  0.0000000  1.6038667  3
    513    512    523    528     1  0.0000000  0.6508444  3
    513    512    530    517     1  180.0000771  0.4184000  2
    513    512    530    517     1  0.0000000  1.6024720  3
    513    515    516    517     1  180.0000771  0.8368000  1
    513    515    516    517     1  180.0000771  1.0460000  2
    513    515    516    517     1  0.0000000  0.7531200  3
    513    515    516    535     1  0.0000000  0.6508444  3
    515    513    512    523     1  180.0000771  0.8368000  1
    515    513    512    523     1  180.0000771  1.0460000  2
    515    513    512    523     1  0.0000000  0.7531200  3
    515    513    512    530     1  0.0000000  0.6508444  3
    515    516    517    521     1  0.0000000  0.6508444  3
    515    516    517    530     1  0.0000000  0.6508444  3
    516    515    513    533     1  0.0000000  0.6508444  3
    517    516    515    522     1  0.0000000  0.6508444  3
    517    530    512    523     1  180.0000771  0.4184000  2
    517    530    512    523     1  0.0000000  1.6024720  3
    521    517    516    535     1  0.0000000  0.6508444  3
    522    515    513    533     1  0.0000000  4.9162000  2
    522    515    513    533     1  0.0000000  0.6024960  3
    522    515    516    535     1  0.0000000  0.6508444  3
    523    512    513    533     1  0.0000000  0.6508444  3
    528    523    512    530     1  0.0000000  4.9162000  2
    528    523    512    530     1  0.0000000  0.6024960  3
    530    512    513    533     1  0.0000000  4.9162000  2
    530    512    513    533     1  0.0000000  0.6024960  3
    530    517    516    535     1  0.0000000  0.6508444  3
    536    537    539    540     1  180.0000771  0.8368000  1
    536    537    539    540     1  180.0000771  1.0460000  2
    536    537    539    540     1  0.0000000  0.7531200  3
    536    537    539    546     1  0.0000000  0.6508444  3
    536    554    541    540     1  180.0000771  0.4184000  2
    536    554    541    540     1  0.0000000  1.6024720  3
    536    554    541    545     1  0.0000000  1.6038667  3
    537    536    547    552     1  0.0000000  0.6508444  3
    537    536    554    541     1  180.0000771  0.4184000  2
    537    536    554    541     1  0.0000000  1.6024720  3
    537    539    540    541     1  180.0000771  0.8368000  1
    537    539    540    541     1  180.0000771  1.0460000  2
    537    539    540    541     1  0.0000000  0.7531200  3
    537    539    540    559     1  0.0000000  0.6508444  3
    539    537    536    547     1  180.0000771  0.8368000  1
    539    537    536    547     1  180.0000771  1.0460000  2
    539    537    536    547     1  0.0000000  0.7531200  3
    539    537    536    554     1  0.0000000  0.6508444  3
    539    540    541    545     1  0.0000000  0.6508444  3
    539    540    541    554     1  0.0000000  0.6508444  3
    540    539    537    557     1  0.0000000  0.6508444  3
    541    540    539    546     1  0.0000000  0.6508444  3
    541    554    536    547     1  180.0000771  0.4184000  2
    541    554    536    547     1  0.0000000  1.6024720  3
    545    541    540    559     1  0.0000000  0.6508444  3
    546    539    537    557     1  0.0000000  4.9162000  2
    546    539    537    557     1  0.0000000  0.6024960  3
    546    539    540    559     1  0.0000000  0.6508444  3
    547    536    537    557     1  0.0000000  0.6508444  3
    552    547    536    554     1  0.0000000  4.9162000  2
    552    547    536    554     1  0.0000000  0.6024960  3
    554    536    537    557     1  0.0000000  4.9162000  2
    554    536    537    557     1  0.0000000  0.6024960  3
    554    541    540    559     1  0.0000000  0.6508444  3
    560    562    564    568     1  0.0000000  0.6508444  3
    562    564    568    569     1  180.0000771  2.0083200  2
    562    564    568    569     1  0.0000000  1.2552000  3
    562    564    568    570     1  180.0000771  2.0083200  2
    562    564    568    570     1  0.0000000  1.2552000  3
    564    568    569    580     1  180.0000771  2.0083200  2
    564    568    569    580     1  0.0000000  1.2552000  3
    564    568    570    572     1  180.0000771  2.0083200  2
    564    568    570    572     1  0.0000000  1.2552000  3
    568    569    580    583     1  0.0000000  0.6508444  3
    568    570    572    576     1  0.0000000  0.6508444  3
    569    580    583    584     1  180.0000771  0.0000000  2
    569    580    583    632     1  180.0000771  0.0000000  2
    569    568    570    572     1  180.0000771  2.0083200  2
    569    568    570    572     1  0.0000000  1.2552000  3
    570    572    576    577     1  180.0000771  0.0000000  2
    570    572    576    608     1  180.0000771  0.0000000  2
    570    568    569    580     1  180.0000771  2.0083200  2
    570    568    569    580     1  0.0000000  1.2552000  3
    572    576    608    589     1  180.0000771  6.0668000  2
    572    576    608    589     1  180.0000771  1.4644000  4
    576    608    589    590     1  0.0000000  1.2552000  3
    576    608    589    588     1  0.0000000  1.2552000  3
    577    576    608    589     1  180.0000771  6.0668000  2
    577    576    608    589     1  180.0000771  1.4644000  4
    580    583    632    613     1  180.0000771  6.0668000  2
    580    583    632    613     1  180.0000771  1.4644000  4
    583    632    613    614     1  0.0000000  1.2552000  3
    583    632    613    612     1  0.0000000  1.2552000  3
    584    583    632    613     1  180.0000771  6.0668000  2
    584    583    632    613     1  180.0000771  1.4644000  4
    585    586    588    589     1  180.0000771  0.8368000  1
    585    586    588    589     1  180.0000771  1.0460000  2
    585    586    588    589     1  0.0000000  0.7531200  3
    585    586    588    595     1  0.0000000  0.6508444  3
    585    603    590    594     1  0.0000000  1.6038667  3
    585    603    590    589     1  180.0000771  0.4184000  2
    585    603    590    589     1  0.0000000  1.6024720  3
    586    588    589    590     1  180.0000771  0.8368000  1
    586    588    589    590     1  180.0000771  1.0460000  2
    586    588    589    590     1  0.0000000  0.7531200  3
    586    588    589    608     1  0.0000000  0.6508444  3
    586    585    596    601     1  0.0000000  0.6508444  3
    586    585    603    590     1  180.0000771  0.4184000  2
    586    585    603    590     1  0.0000000  1.6024720  3
    588    589    590    594     1  0.0000000  0.6508444  3
    588    589    590    603     1  0.0000000  0.6508444  3
    588    586    585    596     1  180.0000771  0.8368000  1
    588    586    585    596     1  180.0000771  1.0460000  2
    588    586    585    596     1  0.0000000  0.7531200  3
    588    586    585    603     1  0.0000000  0.6508444  3
    589    588    586    606     1  0.0000000  0.6508444  3
    590    603    585    596     1  180.0000771  0.4184000  2
    590    603    585    596     1  0.0000000  1.6024720  3
    590    589    588    595     1  0.0000000  0.6508444  3
    594    590    589    608     1  0.0000000  0.6508444  3
    595    588    589    608     1  0.0000000  0.6508444  3
    595    588    586    606     1  0.0000000  4.9162000  2
    595    588    586    606     1  0.0000000  0.6024960  3
    596    585    586    606     1  0.0000000  0.6508444  3
    601    596    585    603     1  0.0000000  4.9162000  2
    601    596    585    603     1  0.0000000  0.6024960  3
    603    590    589    608     1  0.0000000  0.6508444  3
    603    585    586    606     1  0.0000000  4.9162000  2
    603    585    586    606     1  0.0000000  0.6024960  3
    609    610    612    613     1  180.0000771  0.8368000  1
    609    610    612    613     1  180.0000771  1.0460000  2
    609    610    612    613     1  0.0000000  0.7531200  3
    609    610    612    619     1  0.0000000  0.6508444  3
    609    627    614    618     1  0.0000000  1.6038667  3
    609    627    614    613     1  180.0000771  0.4184000  2
    609    627    614    613     1  0.0000000  1.6024720  3
    610    612    613    614     1  180.0000771  0.8368000  1
    610    612    613    614     1  180.0000771  1.0460000  2
    610    612    613    614     1  0.0000000  0.7531200  3
    610    612    613    632     1  0.0000000  0.6508444  3
    610    609    620    625     1  0.0000000  0.6508444  3
    610    609    627    614     1  180.0000771  0.4184000  2
    610    609    627    614     1  0.0000000  1.6024720  3
    612    613    614    618     1  0.0000000  0.6508444  3
    612    613    614    627     1  0.0000000  0.6508444  3
    612    610    609    620     1  180.0000771  0.8368000  1
    612    610    609    620     1  180.0000771  1.0460000  2
    612    610    609    620     1  0.0000000  0.7531200  3
    612    610    609    627     1  0.0000000  0.6508444  3
    613    612    610    630     1  0.0000000  0.6508444  3
    614    627    609    620     1  180.0000771  0.4184000  2
    614    627    609    620     1  0.0000000  1.6024720  3
    614    613    612    619     1  0.0000000  0.6508444  3
    618    614    613    632     1  0.0000000  0.6508444  3
    619    612    613    632     1  0.0000000  0.6508444  3
    619    612    610    630     1  0.0000000  4.9162000  2
    619    612    610    630     1  0.0000000  0.6024960  3
    620    609    610    630     1  0.0000000  0.6508444  3
    625    620    609    627     1  0.0000000  4.9162000  2
    625    620    609    627     1  0.0000000  0.6024960  3
    627    614    613    632     1  0.0000000  0.6508444  3
    627    609    610    630     1  0.0000000  4.9162000  2
    627    609    610    630     1  0.0000000  0.6024960  3
    633    635    637    641     1  0.0000000  0.6508444  3
    635    637    641    642     1  180.0000771  2.0083200  2
    635    637    641    642     1  0.0000000  1.2552000  3
    635    637    641    643     1  180.0000771  2.0083200  2
    635    637    641    643     1  0.0000000  1.2552000  3
    637    641    642    653     1  180.0000771  2.0083200  2
    637    641    642    653     1  0.0000000  1.2552000  3
    637    641    643    645     1  180.0000771  2.0083200  2
    637    641    643    645     1  0.0000000  1.2552000  3
    641    642    653    656     1  0.0000000  0.6508444  3
    641    643    645    649     1  0.0000000  0.6508444  3
    642    641    643    645     1  180.0000771  2.0083200  2
    642    641    643    645     1  0.0000000  1.2552000  3
    642    653    656    657     1  180.0000771  0.0000000  2
    642    653    656    705     1  180.0000771  0.0000000  2
    643    641    642    653     1  180.0000771  2.0083200  2
    643    641    642    653     1  0.0000000  1.2552000  3
    643    645    649    650     1  180.0000771  0.0000000  2
    643    645    649    681     1  180.0000771  0.0000000  2
    645    649    681    662     1  180.0000771  6.0668000  2
    645    649    681    662     1  180.0000771  1.4644000  4
    649    681    662    661     1  0.0000000  1.2552000  3
    649    681    662    663     1  0.0000000  1.2552000  3
    650    649    681    662     1  180.0000771  6.0668000  2
    650    649    681    662     1  180.0000771  1.4644000  4
    653    656    705    686     1  180.0000771  6.0668000  2
    653    656    705    686     1  180.0000771  1.4644000  4
    656    705    686    685     1  0.0000000  1.2552000  3
    656    705    686    687     1  0.0000000  1.2552000  3
    657    656    705    686     1  180.0000771  6.0668000  2
    657    656    705    686     1  180.0000771  1.4644000  4
    658    659    661    662     1  180.0000771  0.8368000  1
    658    659    661    662     1  180.0000771  1.0460000  2
    658    659    661    662     1  0.0000000  0.7531200  3
    658    659    661    668     1  0.0000000  0.6508444  3
    658    676    663    662     1  180.0000771  0.4184000  2
    658    676    663    662     1  0.0000000  1.6024720  3
    658    676    663    667     1  0.0000000  1.6038667  3
    659    658    669    674     1  0.0000000  0.6508444  3
    659    658    676    663     1  180.0000771  0.4184000  2
    659    658    676    663     1  0.0000000  1.6024720  3
    659    661    662    663     1  180.0000771  0.8368000  1
    659    661    662    663     1  180.0000771  1.0460000  2
    659    661    662    663     1  0.0000000  0.7531200  3
    659    661    662    681     1  0.0000000  0.6508444  3
    661    659    658    669     1  180.0000771  0.8368000  1
    661    659    658    669     1  180.0000771  1.0460000  2
    661    659    658    669     1  0.0000000  0.7531200  3
    661    659    658    676     1  0.0000000  0.6508444  3
    661    662    663    667     1  0.0000000  0.6508444  3
    661    662    663    676     1  0.0000000  0.6508444  3
    662    661    659    679     1  0.0000000  0.6508444  3
    663    662    661    668     1  0.0000000  0.6508444  3
    663    676    658    669     1  180.0000771  0.4184000  2
    663    676    658    669     1  0.0000000  1.6024720  3
    667    663    662    681     1  0.0000000  0.6508444  3
    668    661    659    679     1  0.0000000  4.9162000  2
    668    661    659    679     1  0.0000000  0.6024960  3
    668    661    662    681     1  0.0000000  0.6508444  3
    669    658    659    679     1  0.0000000  0.6508444  3
    674    669    658    676     1  0.0000000  4.9162000  2
    674    669    658    676     1  0.0000000  0.6024960  3
    676    658    659    679     1  0.0000000  4.9162000  2
    676    658    659    679     1  0.0000000  0.6024960  3
    676    663    662    681     1  0.0000000  0.6508444  3
    682    683    685    686     1  180.0000771  0.8368000  1
    682    683    685    686     1  180.0000771  1.0460000  2
    682    683    685    686     1  0.0000000  0.7531200  3
    682    683    685    692     1  0.0000000  0.6508444  3
    682    700    687    686     1  180.0000771  0.4184000  2
    682    700    687    686     1  0.0000000  1.6024720  3
    682    700    687    691     1  0.0000000  1.6038667  3
    683    682    693    698     1  0.0000000  0.6508444  3
    683    682    700    687     1  180.0000771  0.4184000  2
    683    682    700    687     1  0.0000000  1.6024720  3
    683    685    686    687     1  180.0000771  0.8368000  1
    683    685    686    687     1  180.0000771  1.0460000  2
    683    685    686    687     1  0.0000000  0.7531200  3
    683    685    686    705     1  0.0000000  0.6508444  3
    685    683    682    693     1  180.0000771  0.8368000  1
    685    683    682    693     1  180.0000771  1.0460000  2
    685    683    682    693     1  0.0000000  0.7531200  3
    685    683    682    700     1  0.0000000  0.6508444  3
    685    686    687    691     1  0.0000000  0.6508444  3
    685    686    687    700     1  0.0000000  0.6508444  3
    686    685    683    703     1  0.0000000  0.6508444  3
    687    686    685    692     1  0.0000000  0.6508444  3
    687    700    682    693     1  180.0000771  0.4184000  2
    687    700    682    693     1  0.0000000  1.6024720  3
    691    687    686    705     1  0.0000000  0.6508444  3
    692    685    683    703     1  0.0000000  4.9162000  2
    692    685    683    703     1  0.0000000  0.6024960  3
    692    685    686    705     1  0.0000000  0.6508444  3
    693    682    683    703     1  0.0000000  0.6508444  3
    698    693    682    700     1  0.0000000  4.9162000  2
    698    693    682    700     1  0.0000000  0.6024960  3
    700    682    683    703     1  0.0000000  4.9162000  2
    700    682    683    703     1  0.0000000  0.6024960  3
    700    687    686    705     1  0.0000000  0.6508444  3
    706    708    710    714     1  0.0000000  0.6508444  3
    708    710    714    715     1  180.0000771  2.0083200  2
    708    710    714    715     1  0.0000000  1.2552000  3
    708    710    714    716     1  180.0000771  2.0083200  2
    708    710    714    716     1  0.0000000  1.2552000  3
    710    714    715    726     1  180.0000771  2.0083200  2
    710    714    715    726     1  0.0000000  1.2552000  3
    710    714    716    718     1  180.0000771  2.0083200  2
    710    714    716    718     1  0.0000000  1.2552000  3
    714    715    726    729     1  0.0000000  0.6508444  3
    714    716    718    722     1  0.0000000  0.6508444  3
    715    726    729    730     1  180.0000771  0.0000000  2
    715    726    729    778     1  180.0000771  0.0000000  2
    715    714    716    718     1  180.0000771  2.0083200  2
    715    714    716    718     1  0.0000000  1.2552000  3
    716    718    722    723     1  180.0000771  0.0000000  2
    716    718    722    754     1  180.0000771  0.0000000  2
    716    714    715    726     1  180.0000771  2.0083200  2
    716    714    715    726     1  0.0000000  1.2552000  3
    718    722    754    735     1  180.0000771  6.0668000  2
    718    722    754    735     1  180.0000771  1.4644000  4
    722    754    735    736     1  0.0000000  1.2552000  3
    722    754    735    734     1  0.0000000  1.2552000  3
    723    722    754    735     1  180.0000771  6.0668000  2
    723    722    754    735     1  180.0000771  1.4644000  4
    726    729    778    759     1  180.0000771  6.0668000  2
    726    729    778    759     1  180.0000771  1.4644000  4
    729    778    759    760     1  0.0000000  1.2552000  3
    729    778    759    758     1  0.0000000  1.2552000  3
    730    729    778    759     1  180.0000771  6.0668000  2
    730    729    778    759     1  180.0000771  1.4644000  4
    731    732    734    735     1  180.0000771  0.8368000  1
    731    732    734    735     1  180.0000771  1.0460000  2
    731    732    734    735     1  0.0000000  0.7531200  3
    731    732    734    741     1  0.0000000  0.6508444  3
    731    749    736    740     1  0.0000000  1.6038667  3
    731    749    736    735     1  180.0000771  0.4184000  2
    731    749    736    735     1  0.0000000  1.6024720  3
    732    734    735    736     1  180.0000771  0.8368000  1
    732    734    735    736     1  180.0000771  1.0460000  2
    732    734    735    736     1  0.0000000  0.7531200  3
    732    734    735    754     1  0.0000000  0.6508444  3
    732    731    742    747     1  0.0000000  0.6508444  3
    732    731    749    736     1  180.0000771  0.4184000  2
    732    731    749    736     1  0.0000000  1.6024720  3
    734    735    736    740     1  0.0000000  0.6508444  3
    734    735    736    749     1  0.0000000  0.6508444  3
    734    732    731    742     1  180.0000771  0.8368000  1
    734    732    731    742     1  180.0000771  1.0460000  2
    734    732    731    742     1  0.0000000  0.7531200  3
    734    732    731    749     1  0.0000000  0.6508444  3
    735    734    732    752     1  0.0000000  0.6508444  3
    736    749    731    742     1  180.0000771  0.4184000  2
    736    749    731    742     1  0.0000000  1.6024720  3
    736    735    734    741     1  0.0000000  0.6508444  3
    740    736    735    754     1  0.0000000  0.6508444  3
    741    734    735    754     1  0.0000000  0.6508444  3
    741    734    732    752     1  0.0000000  4.9162000  2
    741    734    732    752     1  0.0000000  0.6024960  3
    742    731    732    752     1  0.0000000  0.6508444  3
    747    742    731    749     1  0.0000000  4.9162000  2
    747    742    731    749     1  0.0000000  0.6024960  3
    749    736    735    754     1  0.0000000  0.6508444  3
    749    731    732    752     1  0.0000000  4.9162000  2
    749    731    732    752     1  0.0000000  0.6024960  3
    755    756    758    759     1  180.0000771  0.8368000  1
    755    756    758    759     1  180.0000771  1.0460000  2
    755    756    758    759     1  0.0000000  0.7531200  3
    755    756    758    765     1  0.0000000  0.6508444  3
    755    773    760    764     1  0.0000000  1.6038667  3
    755    773    760    759     1  180.0000771  0.4184000  2
    755    773    760    759     1  0.0000000  1.6024720  3
    756    758    759    760     1  180.0000771  0.8368000  1
    756    758    759    760     1  180.0000771  1.0460000  2
    756    758    759    760     1  0.0000000  0.7531200  3
    756    758    759    778     1  0.0000000  0.6508444  3
    756    755    766    771     1  0.0000000  0.6508444  3
    756    755    773    760     1  180.0000771  0.4184000  2
    756    755    773    760     1  0.0000000  1.6024720  3
    758    759    760    764     1  0.0000000  0.6508444  3
    758    759    760    773     1  0.0000000  0.6508444  3
    758    756    755    766     1  180.0000771  0.8368000  1
    758    756    755    766     1  180.0000771  1.0460000  2
    758    756    755    766     1  0.0000000  0.7531200  3
    758    756    755    773     1  0.0000000  0.6508444  3
    759    758    756    776     1  0.0000000  0.6508444  3
    760    773    755    766     1  180.0000771  0.4184000  2
    760    773    755    766     1  0.0000000  1.6024720  3
    760    759    758    765     1  0.0000000  0.6508444  3
    764    760    759    778     1  0.0000000  0.6508444  3
    765    758    759    778     1  0.0000000  0.6508444  3
    765    758    756    776     1  0.0000000  4.9162000  2
    765    758    756    776     1  0.0000000  0.6024960  3
    766    755    756    776     1  0.0000000  0.6508444  3
    771    766    755    773     1  0.0000000  4.9162000  2
    771    766    755    773     1  0.0000000  0.6024960  3
    773    760    759    778     1  0.0000000  0.6508444  3
    773    755    756    776     1  0.0000000  4.9162000  2
    773    755    756    776     1  0.0000000  0.6024960  3
    779    781    783    787     1  0.0000000  0.6508444  3
    781    783    787    788     1  180.0000771  2.0083200  2
    781    783    787    788     1  0.0000000  1.2552000  3
    781    783    787    789     1  180.0000771  2.0083200  2
    781    783    787    789     1  0.0000000  1.2552000  3
    783    787    788    799     1  180.0000771  2.0083200  2
    783    787    788    799     1  0.0000000  1.2552000  3
    783    787    789    791     1  180.0000771  2.0083200  2
    783    787    789    791     1  0.0000000  1.2552000  3
    787    788    799    802     1  0.0000000  0.6508444  3
    787    789    791    795     1  0.0000000  0.6508444  3
    788    787    789    791     1  180.0000771  2.0083200  2
    788    787    789    791     1  0.0000000  1.2552000  3
    788    799    802    803     1  180.0000771  0.0000000  2
    788    799    802    851     1  180.0000771  0.0000000  2
    789    787    788    799     1  180.0000771  2.0083200  2
    789    787    788    799     1  0.0000000  1.2552000  3
    789    791    795    796     1  180.0000771  0.0000000  2
    789    791    795    827     1  180.0000771  0.0000000  2
    791    795    827    808     1  180.0000771  6.0668000  2
    791    795    827    808     1  180.0000771  1.4644000  4
    795    827    808    807     1  0.0000000  1.2552000  3
    795    827    808    809     1  0.0000000  1.2552000  3
    796    795    827    808     1  180.0000771  6.0668000  2
    796    795    827    808     1  180.0000771  1.4644000  4
    799    802    851    832     1  180.0000771  6.0668000  2
    799    802    851    832     1  180.0000771  1.4644000  4
    802    851    832    831     1  0.0000000  1.2552000  3
    802    851    832    833     1  0.0000000  1.2552000  3
    803    802    851    832     1  180.0000771  6.0668000  2
    803    802    851    832     1  180.0000771  1.4644000  4
    804    805    807    808     1  180.0000771  0.8368000  1
    804    805    807    808     1  180.0000771  1.0460000  2
    804    805    807    808     1  0.0000000  0.7531200  3
    804    805    807    814     1  0.0000000  0.6508444  3
    804    822    809    808     1  180.0000771  0.4184000  2
    804    822    809    808     1  0.0000000  1.6024720  3
    804    822    809    813     1  0.0000000  1.6038667  3
    805    804    815    820     1  0.0000000  0.6508444  3
    805    804    822    809     1  180.0000771  0.4184000  2
    805    804    822    809     1  0.0000000  1.6024720  3
    805    807    808    809     1  180.0000771  0.8368000  1
    805    807    808    809     1  180.0000771  1.0460000  2
    805    807    808    809     1  0.0000000  0.7531200  3
    805    807    808    827     1  0.0000000  0.6508444  3
    807    805    804    815     1  180.0000771  0.8368000  1
    807    805    804    815     1  180.0000771  1.0460000  2
    807    805    804    815     1  0.0000000  0.7531200  3
    807    805    804    822     1  0.0000000  0.6508444  3
    807    808    809    813     1  0.0000000  0.6508444  3
    807    808    809    822     1  0.0000000  0.6508444  3
    808    807    805    825     1  0.0000000  0.6508444  3
    809    808    807    814     1  0.0000000  0.6508444  3
    809    822    804    815     1  180.0000771  0.4184000  2
    809    822    804    815     1  0.0000000  1.6024720  3
    813    809    808    827     1  0.0000000  0.6508444  3
    814    807    805    825     1  0.0000000  4.9162000  2
    814    807    805    825     1  0.0000000  0.6024960  3
    814    807    808    827     1  0.0000000  0.6508444  3
    815    804    805    825     1  0.0000000  0.6508444  3
    820    815    804    822     1  0.0000000  4.9162000  2
    820    815    804    822     1  0.0000000  0.6024960  3
    822    804    805    825     1  0.0000000  4.9162000  2
    822    804    805    825     1  0.0000000  0.6024960  3
    822    809    808    827     1  0.0000000  0.6508444  3
    828    829    831    832     1  180.0000771  0.8368000  1
    828    829    831    832     1  180.0000771  1.0460000  2
    828    829    831    832     1  0.0000000  0.7531200  3
    828    829    831    838     1  0.0000000  0.6508444  3
    828    846    833    832     1  180.0000771  0.4184000  2
    828    846    833    832     1  0.0000000  1.6024720  3
    828    846    833    837     1  0.0000000  1.6038667  3
    829    828    839    844     1  0.0000000  0.6508444  3
    829    828    846    833     1  180.0000771  0.4184000  2
    829    828    846    833     1  0.0000000  1.6024720  3
    829    831    832    833     1  180.0000771  0.8368000  1
    829    831    832    833     1  180.0000771  1.0460000  2
    829    831    832    833     1  0.0000000  0.7531200  3
    829    831    832    851     1  0.0000000  0.6508444  3
    831    829    828    839     1  180.0000771  0.8368000  1
    831    829    828    839     1  180.0000771  1.0460000  2
    831    829    828    839     1  0.0000000  0.7531200  3
    831    829    828    846     1  0.0000000  0.6508444  3
    831    832    833    837     1  0.0000000  0.6508444  3
    831    832    833    846     1  0.0000000  0.6508444  3
    832    831    829    849     1  0.0000000  0.6508444  3
    833    832    831    838     1  0.0000000  0.6508444  3
    833    846    828    839     1  180.0000771  0.4184000  2
    833    846    828    839     1  0.0000000  1.6024720  3
    837    833    832    851     1  0.0000000  0.6508444  3
    838    831    829    849     1  0.0000000  4.9162000  2
    838    831    829    849     1  0.0000000  0.6024960  3
    838    831    832    851     1  0.0000000  0.6508444  3
    839    828    829    849     1  0.0000000  0.6508444  3
    844    839    828    846     1  0.0000000  4.9162000  2
    844    839    828    846     1  0.0000000  0.6024960  3
    846    828    829    849     1  0.0000000  4.9162000  2
    846    828    829    849     1  0.0000000  0.6024960  3
    846    833    832    851     1  0.0000000  0.6508444  3
    852    854    856    860     1  0.0000000  0.6508444  3
    854    856    860    861     1  180.0000771  2.0083200  2
    854    856    860    861     1  0.0000000  1.2552000  3
    854    856    860    862     1  180.0000771  2.0083200  2
    854    856    860    862     1  0.0000000  1.2552000  3
    856    860    861    872     1  180.0000771  2.0083200  2
    856    860    861    872     1  0.0000000  1.2552000  3
    856    860    862    864     1  180.0000771  2.0083200  2
    856    860    862    864     1  0.0000000  1.2552000  3
    860    861    872    875     1  0.0000000  0.6508444  3
    860    862    864    868     1  0.0000000  0.6508444  3
    861    872    875    876     1  180.0000771  0.0000000  2
    861    872    875    924     1  180.0000771  0.0000000  2
    861    860    862    864     1  180.0000771  2.0083200  2
    861    860    862    864     1  0.0000000  1.2552000  3
    862    864    868    869     1  180.0000771  0.0000000  2
    862    864    868    900     1  180.0000771  0.0000000  2
    862    860    861    872     1  180.0000771  2.0083200  2
    862    860    861    872     1  0.0000000  1.2552000  3
    864    868    900    881     1  180.0000771  6.0668000  2
    864    868    900    881     1  180.0000771  1.4644000  4
    868    900    881    882     1  0.0000000  1.2552000  3
    868    900    881    880     1  0.0000000  1.2552000  3
    869    868    900    881     1  180.0000771  6.0668000  2
    869    868    900    881     1  180.0000771  1.4644000  4
    872    875    924    905     1  180.0000771  6.0668000  2
    872    875    924    905     1  180.0000771  1.4644000  4
    875    924    905    906     1  0.0000000  1.2552000  3
    875    924    905    904     1  0.0000000  1.2552000  3
    876    875    924    905     1  180.0000771  6.0668000  2
    876    875    924    905     1  180.0000771  1.4644000  4
    877    878    880    881     1  180.0000771  0.8368000  1
    877    878    880    881     1  180.0000771  1.0460000  2
    877    878    880    881     1  0.0000000  0.7531200  3
    877    878    880    887     1  0.0000000  0.6508444  3
    877    895    882    886     1  0.0000000  1.6038667  3
    877    895    882    881     1  180.0000771  0.4184000  2
    877    895    882    881     1  0.0000000  1.6024720  3
    878    880    881    882     1  180.0000771  0.8368000  1
    878    880    881    882     1  180.0000771  1.0460000  2
    878    880    881    882     1  0.0000000  0.7531200  3
    878    880    881    900     1  0.0000000  0.6508444  3
    878    877    888    893     1  0.0000000  0.6508444  3
    878    877    895    882     1  180.0000771  0.4184000  2
    878    877    895    882     1  0.0000000  1.6024720  3
    880    881    882    886     1  0.0000000  0.6508444  3
    880    881    882    895     1  0.0000000  0.6508444  3
    880    878    877    888     1  180.0000771  0.8368000  1
    880    878    877    888     1  180.0000771  1.0460000  2
    880    878    877    888     1  0.0000000  0.7531200  3
    880    878    877    895     1  0.0000000  0.6508444  3
    881    880    878    898     1  0.0000000  0.6508444  3
    882    895    877    888     1  180.0000771  0.4184000  2
    882    895    877    888     1  0.0000000  1.6024720  3
    882    881    880    887     1  0.0000000  0.6508444  3
    886    882    881    900     1  0.0000000  0.6508444  3
    887    880    881    900     1  0.0000000  0.6508444  3
    887    880    878    898     1  0.0000000  4.9162000  2
    887    880    878    898     1  0.0000000  0.6024960  3
    888    877    878    898     1  0.0000000  0.6508444  3
    893    888    877    895     1  0.0000000  4.9162000  2
    893    888    877    895     1  0.0000000  0.6024960  3
    895    882    881    900     1  0.0000000  0.6508444  3
    895    877    878    898     1  0.0000000  4.9162000  2
    895    877    878    898     1  0.0000000  0.6024960  3
    901    902    904    905     1  180.0000771  0.8368000  1
    901    902    904    905     1  180.0000771  1.0460000  2
    901    902    904    905     1  0.0000000  0.7531200  3
    901    902    904    911     1  0.0000000  0.6508444  3
    901    919    906    910     1  0.0000000  1.6038667  3
    901    919    906    905     1  180.0000771  0.4184000  2
    901    919    906    905     1  0.0000000  1.6024720  3
    902    904    905    906     1  180.0000771  0.8368000  1
    902    904    905    906     1  180.0000771  1.0460000  2
    902    904    905    906     1  0.0000000  0.7531200  3
    902    904    905    924     1  0.0000000  0.6508444  3
    902    901    912    917     1  0.0000000  0.6508444  3
    902    901    919    906     1  180.0000771  0.4184000  2
    902    901    919    906     1  0.0000000  1.6024720  3
    904    905    906    910     1  0.0000000  0.6508444  3
    904    905    906    919     1  0.0000000  0.6508444  3
    904    902    901    912     1  180.0000771  0.8368000  1
    904    902    901    912     1  180.0000771  1.0460000  2
    904    902    901    912     1  0.0000000  0.7531200  3
    904    902    901    919     1  0.0000000  0.6508444  3
    905    904    902    922     1  0.0000000  0.6508444  3
    906    919    901    912     1  180.0000771  0.4184000  2
    906    919    901    912     1  0.0000000  1.6024720  3
    906    905    904    911     1  0.0000000  0.6508444  3
    910    906    905    924     1  0.0000000  0.6508444  3
    911    904    905    924     1  0.0000000  0.6508444  3
    911    904    902    922     1  0.0000000  4.9162000  2
    911    904    902    922     1  0.0000000  0.6024960  3
    912    901    902    922     1  0.0000000  0.6508444  3
    917    912    901    919     1  0.0000000  4.9162000  2
    917    912    901    919     1  0.0000000  0.6024960  3
    919    906    905    924     1  0.0000000  0.6508444  3
    919    901    902    922     1  0.0000000  4.9162000  2
    919    901    902    922     1  0.0000000  0.6024960  3
    925    927    929    933     1  0.0000000  0.6508444  3
    927    929    933    934     1  180.0000771  2.0083200  2
    927    929    933    934     1  0.0000000  1.2552000  3
    927    929    933    935     1  180.0000771  2.0083200  2
    927    929    933    935     1  0.0000000  1.2552000  3
    929    933    934    945     1  180.0000771  2.0083200  2
    929    933    934    945     1  0.0000000  1.2552000  3
    929    933    935    937     1  180.0000771  2.0083200  2
    929    933    935    937     1  0.0000000  1.2552000  3
    933    934    945    948     1  0.0000000  0.6508444  3
    933    935    937    941     1  0.0000000  0.6508444  3
    934    933    935    937     1  180.0000771  2.0083200  2
    934    933    935    937     1  0.0000000  1.2552000  3
    934    945    948    949     1  180.0000771  0.0000000  2
    934    945    948    997     1  180.0000771  0.0000000  2
    935    933    934    945     1  180.0000771  2.0083200  2
    935    933    934    945     1  0.0000000  1.2552000  3
    935    937    941    942     1  180.0000771  0.0000000  2
    935    937    941    973     1  180.0000771  0.0000000  2
    937    941    973    954     1  180.0000771  6.0668000  2
    937    941    973    954     1  180.0000771  1.4644000  4
    941    973    954    953     1  0.0000000  1.2552000  3
    941    973    954    955     1  0.0000000  1.2552000  3
    942    941    973    954     1  180.0000771  6.0668000  2
    942    941    973    954     1  180.0000771  1.4644000  4
    945    948    997    978     1  180.0000771  6.0668000  2
    945    948    997    978     1  180.0000771  1.4644000  4
    948    997    978    977     1  0.0000000  1.2552000  3
    948    997    978    979     1  0.0000000  1.2552000  3
    949    948    997    978     1  180.0000771  6.0668000  2
    949    948    997    978     1  180.0000771  1.4644000  4
    950    951    953    954     1  180.0000771  0.8368000  1
    950    951    953    954     1  180.0000771  1.0460000  2
    950    951    953    954     1  0.0000000  0.7531200  3
    950    951    953    960     1  0.0000000  0.6508444  3
    950    968    955    954     1  180.0000771  0.4184000  2
    950    968    955    954     1  0.0000000  1.6024720  3
    950    968    955    959     1  0.0000000  1.6038667  3
    951    950    961    966     1  0.0000000  0.6508444  3
    951    950    968    955     1  180.0000771  0.4184000  2
    951    950    968    955     1  0.0000000  1.6024720  3
    951    953    954    955     1  180.0000771  0.8368000  1
    951    953    954    955     1  180.0000771  1.0460000  2
    951    953    954    955     1  0.0000000  0.7531200  3
    951    953    954    973     1  0.0000000  0.6508444  3
    953    951    950    961     1  180.0000771  0.8368000  1
    953    951    950    961     1  180.0000771  1.0460000  2
    953    951    950    961     1  0.0000000  0.7531200  3
    953    951    950    968     1  0.0000000  0.6508444  3
    953    954    955    959     1  0.0000000  0.6508444  3
    953    954    955    968     1  0.0000000  0.6508444  3
    954    953    951    971     1  0.0000000  0.6508444  3
    955    954    953    960     1  0.0000000  0.6508444  3
    955    968    950    961     1  180.0000771  0.4184000  2
    955    968    950    961     1  0.0000000  1.6024720  3
    959    955    954    973     1  0.0000000  0.6508444  3
    960    953    951    971     1  0.0000000  4.9162000  2
    960    953    951    971     1  0.0000000  0.6024960  3
    960    953    954    973     1  0.0000000  0.6508444  3
    961    950    951    971     1  0.0000000  0.6508444  3
    966    961    950    968     1  0.0000000  4.9162000  2
    966    961    950    968     1  0.0000000  0.6024960  3
    968    950    951    971     1  0.0000000  4.9162000  2
    968    950    951    971     1  0.0000000  0.6024960  3
    968    955    954    973     1  0.0000000  0.6508444  3
    974    975    977    978     1  180.0000771  0.8368000  1
    974    975    977    978     1  180.0000771  1.0460000  2
    974    975    977    978     1  0.0000000  0.7531200  3
    974    975    977    984     1  0.0000000  0.6508444  3
    974    992    979    978     1  180.0000771  0.4184000  2
    974    992    979    978     1  0.0000000  1.6024720  3
    974    992    979    983     1  0.0000000  1.6038667  3
    975    974    985    990     1  0.0000000  0.6508444  3
    975    974    992    979     1  180.0000771  0.4184000  2
    975    974    992    979     1  0.0000000  1.6024720  3
    975    977    978    979     1  180.0000771  0.8368000  1
    975    977    978    979     1  180.0000771  1.0460000  2
    975    977    978    979     1  0.0000000  0.7531200  3
    975    977    978    997     1  0.0000000  0.6508444  3
    977    975    974    985     1  180.0000771  0.8368000  1
    977    975    974    985     1  180.0000771  1.0460000  2
    977    975    974    985     1  0.0000000  0.7531200  3
    977    975    974    992     1  0.0000000  0.6508444  3
    977    978    979    983     1  0.0000000  0.6508444  3
    977    978    979    992     1  0.0000000  0.6508444  3
    978    977    975    995     1  0.0000000  0.6508444  3
    979    978    977    984     1  0.0000000  0.6508444  3
    979    992    974    985     1  180.0000771  0.4184000  2
    979    992    974    985     1  0.0000000  1.6024720  3
    983    979    978    997     1  0.0000000  0.6508444  3
    984    977    975    995     1  0.0000000  4.9162000  2
    984    977    975    995     1  0.0000000  0.6024960  3
    984    977    978    997     1  0.0000000  0.6508444  3
    985    974    975    995     1  0.0000000  0.6508444  3
    990    985    974    992     1  0.0000000  4.9162000  2
    990    985    974    992     1  0.0000000  0.6024960  3
    992    974    975    995     1  0.0000000  4.9162000  2
    992    974    975    995     1  0.0000000  0.6024960  3
    992    979    978    997     1  0.0000000  0.6508444  3
    998   1000   1002   1006     1  0.0000000  0.6508444  3
   1000   1002   1006   1007     1  180.0000771  2.0083200  2
   1000   1002   1006   1007     1  0.0000000  1.2552000  3
   1000   1002   1006   1008     1  180.0000771  2.0083200  2
   1000   1002   1006   1008     1  0.0000000  1.2552000  3
   1002   1006   1007   1018     1  180.0000771  2.0083200  2
   1002   1006   1007   1018     1  0.0000000  1.2552000  3
   1002   1006   1008   1010     1  180.0000771  2.0083200  2
   1002   1006   1008   1010     1  0.0000000  1.2552000  3
   1006   1007   1018   1021     1  0.0000000  0.6508444  3
   1006   1008   1010   1014     1  0.0000000  0.6508444  3
   1007   1018   1021   1022     1  180.0000771  0.0000000  2
   1007   1018   1021   1070     1  180.0000771  0.0000000  2
   1007   1006   1008   1010     1  180.0000771  2.0083200  2
   1007   1006   1008   1010     1  0.0000000  1.2552000  3
   1008   1010   1014   1015     1  180.0000771  0.0000000  2
   1008   1010   1014   1046     1  180.0000771  0.0000000  2
   1008   1006   1007   1018     1  180.0000771  2.0083200  2
   1008   1006   1007   1018     1  0.0000000  1.2552000  3
   1010   1014   1046   1027     1  180.0000771  6.0668000  2
   1010   1014   1046   1027     1  180.0000771  1.4644000  4
   1014   1046   1027   1028     1  0.0000000  1.2552000  3
   1014   1046   1027   1026     1  0.0000000  1.2552000  3
   1015   1014   1046   1027     1  180.0000771  6.0668000  2
   1015   1014   1046   1027     1  180.0000771  1.4644000  4
   1018   1021   1070   1051     1  180.0000771  6.0668000  2
   1018   1021   1070   1051     1  180.0000771  1.4644000  4
   1021   1070   1051   1052     1  0.0000000  1.2552000  3
   1021   1070   1051   1050     1  0.0000000  1.2552000  3
   1022   1021   1070   1051     1  180.0000771  6.0668000  2
   1022   1021   1070   1051     1  180.0000771  1.4644000  4
   1023   1024   1026   1027     1  180.0000771  0.8368000  1
   1023   1024   1026   1027     1  180.0000771  1.0460000  2
   1023   1024   1026   1027     1  0.0000000  0.7531200  3
   1023   1024   1026   1033     1  0.0000000  0.6508444  3
   1023   1041   1028   1032     1  0.0000000  1.6038667  3
   1023   1041   1028   1027     1  180.0000771  0.4184000  2
   1023   1041   1028   1027     1  0.0000000  1.6024720  3
   1024   1026   1027   1028     1  180.0000771  0.8368000  1
   1024   1026   1027   1028     1  180.0000771  1.0460000  2
   1024   1026   1027   1028     1  0.0000000  0.7531200  3
   1024   1026   1027   1046     1  0.0000000  0.6508444  3
   1024   1023   1034   1039     1  0.0000000  0.6508444  3
   1024   1023   1041   1028     1  180.0000771  0.4184000  2
   1024   1023   1041   1028     1  0.0000000  1.6024720  3
   1026   1027   1028   1032     1  0.0000000  0.6508444  3
   1026   1027   1028   1041     1  0.0000000  0.6508444  3
   1026   1024   1023   1034     1  180.0000771  0.8368000  1
   1026   1024   1023   1034     1  180.0000771  1.0460000  2
   1026   1024   1023   1034     1  0.0000000  0.7531200  3
   1026   1024   1023   1041     1  0.0000000  0.6508444  3
   1027   1026   1024   1044     1  0.0000000  0.6508444  3
   1028   1041   1023   1034     1  180.0000771  0.4184000  2
   1028   1041   1023   1034     1  0.0000000  1.6024720  3
   1028   1027   1026   1033     1  0.0000000  0.6508444  3
   1032   1028   1027   1046     1  0.0000000  0.6508444  3
   1033   1026   1027   1046     1  0.0000000  0.6508444  3
   1033   1026   1024   1044     1  0.0000000  4.9162000  2
   1033   1026   1024   1044     1  0.0000000  0.6024960  3
   1034   1023   1024   1044     1  0.0000000  0.6508444  3
   1039   1034   1023   1041     1  0.0000000  4.9162000  2
   1039   1034   1023   1041     1  0.0000000  0.6024960  3
   1041   1028   1027   1046     1  0.0000000  0.6508444  3
   1041   1023   1024   1044     1  0.0000000  4.9162000  2
   1041   1023   1024   1044     1  0.0000000  0.6024960  3
   1047   1048   1050   1051     1  180.0000771  0.8368000  1
   1047   1048   1050   1051     1  180.0000771  1.0460000  2
   1047   1048   1050   1051     1  0.0000000  0.7531200  3
   1047   1048   1050   1057     1  0.0000000  0.6508444  3
   1047   1065   1052   1056     1  0.0000000  1.6038667  3
   1047   1065   1052   1051     1  180.0000771  0.4184000  2
   1047   1065   1052   1051     1  0.0000000  1.6024720  3
   1048   1050   1051   1052     1  180.0000771  0.8368000  1
   1048   1050   1051   1052     1  180.0000771  1.0460000  2
   1048   1050   1051   1052     1  0.0000000  0.7531200  3
   1048   1050   1051   1070     1  0.0000000  0.6508444  3
   1048   1047   1058   1063     1  0.0000000  0.6508444  3
   1048   1047   1065   1052     1  180.0000771  0.4184000  2
   1048   1047   1065   1052     1  0.0000000  1.6024720  3
   1050   1051   1052   1056     1  0.0000000  0.6508444  3
   1050   1051   1052   1065     1  0.0000000  0.6508444  3
   1050   1048   1047   1058     1  180.0000771  0.8368000  1
   1050   1048   1047   1058     1  180.0000771  1.0460000  2
   1050   1048   1047   1058     1  0.0000000  0.7531200  3
   1050   1048   1047   1065     1  0.0000000  0.6508444  3
   1051   1050   1048   1068     1  0.0000000  0.6508444  3
   1052   1065   1047   1058     1  180.0000771  0.4184000  2
   1052   1065   1047   1058     1  0.0000000  1.6024720  3
   1052   1051   1050   1057     1  0.0000000  0.6508444  3
   1056   1052   1051   1070     1  0.0000000  0.6508444  3
   1057   1050   1051   1070     1  0.0000000  0.6508444  3
   1057   1050   1048   1068     1  0.0000000  4.9162000  2
   1057   1050   1048   1068     1  0.0000000  0.6024960  3
   1058   1047   1048   1068     1  0.0000000  0.6508444  3
   1063   1058   1047   1065     1  0.0000000  4.9162000  2
   1063   1058   1047   1065     1  0.0000000  0.6024960  3
   1065   1052   1051   1070     1  0.0000000  0.6508444  3
   1065   1047   1048   1068     1  0.0000000  4.9162000  2
   1065   1047   1048   1068     1  0.0000000  0.6024960  3
   1071   1073   1075   1079     1  0.0000000  0.6508444  3
   1073   1075   1079   1080     1  180.0000771  2.0083200  2
   1073   1075   1079   1080     1  0.0000000  1.2552000  3
   1073   1075   1079   1081     1  180.0000771  2.0083200  2
   1073   1075   1079   1081     1  0.0000000  1.2552000  3
   1075   1079   1080   1091     1  180.0000771  2.0083200  2
   1075   1079   1080   1091     1  0.0000000  1.2552000  3
   1075   1079   1081   1083     1  180.0000771  2.0083200  2
   1075   1079   1081   1083     1  0.0000000  1.2552000  3
   1079   1080   1091   1094     1  0.0000000  0.6508444  3
   1079   1081   1083   1087     1  0.0000000  0.6508444  3
   1080   1079   1081   1083     1  180.0000771  2.0083200  2
   1080   1079   1081   1083     1  0.0000000  1.2552000  3
   1080   1091   1094   1095     1  180.0000771  0.0000000  2
   1080   1091   1094   1143     1  180.0000771  0.0000000  2
   1081   1079   1080   1091     1  180.0000771  2.0083200  2
   1081   1079   1080   1091     1  0.0000000  1.2552000  3
   1081   1083   1087   1088     1  180.0000771  0.0000000  2
   1081   1083   1087   1119     1  180.0000771  0.0000000  2
   1083   1087   1119   1100     1  180.0000771  6.0668000  2
   1083   1087   1119   1100     1  180.0000771  1.4644000  4
   1087   1119   1100   1099     1  0.0000000  1.2552000  3
   1087   1119   1100   1101     1  0.0000000  1.2552000  3
   1088   1087   1119   1100     1  180.0000771  6.0668000  2
   1088   1087   1119   1100     1  180.0000771  1.4644000  4
   1091   1094   1143   1124     1  180.0000771  6.0668000  2
   1091   1094   1143   1124     1  180.0000771  1.4644000  4
   1094   1143   1124   1123     1  0.0000000  1.2552000  3
   1094   1143   1124   1125     1  0.0000000  1.2552000  3
   1095   1094   1143   1124     1  180.0000771  6.0668000  2
   1095   1094   1143   1124     1  180.0000771  1.4644000  4
   1096   1097   1099   1100     1  180.0000771  0.8368000  1
   1096   1097   1099   1100     1  180.0000771  1.0460000  2
   1096   1097   1099   1100     1  0.0000000  0.7531200  3
   1096   1097   1099   1106     1  0.0000000  0.6508444  3
   1096   1114   1101   1100     1  180.0000771  0.4184000  2
   1096   1114   1101   1100     1  0.0000000  1.6024720  3
   1096   1114   1101   1105     1  0.0000000  1.6038667  3
   1097   1096   1107   1112     1  0.0000000  0.6508444  3
   1097   1096   1114   1101     1  180.0000771  0.4184000  2
   1097   1096   1114   1101     1  0.0000000  1.6024720  3
   1097   1099   1100   1101     1  180.0000771  0.8368000  1
   1097   1099   1100   1101     1  180.0000771  1.0460000  2
   1097   1099   1100   1101     1  0.0000000  0.7531200  3
   1097   1099   1100   1119     1  0.0000000  0.6508444  3
   1099   1097   1096   1107     1  180.0000771  0.8368000  1
   1099   1097   1096   1107     1  180.0000771  1.0460000  2
   1099   1097   1096   1107     1  0.0000000  0.7531200  3
   1099   1097   1096   1114     1  0.0000000  0.6508444  3
   1099   1100   1101   1105     1  0.0000000  0.6508444  3
   1099   1100   1101   1114     1  0.0000000  0.6508444  3
   1100   1099   1097   1117     1  0.0000000  0.6508444  3
   1101   1100   1099   1106     1  0.0000000  0.6508444  3
   1101   1114   1096   1107     1  180.0000771  0.4184000  2
   1101   1114   1096   1107     1  0.0000000  1.6024720  3
   1105   1101   1100   1119     1  0.0000000  0.6508444  3
   1106   1099   1097   1117     1  0.0000000  4.9162000  2
   1106   1099   1097   1117     1  0.0000000  0.6024960  3
   1106   1099   1100   1119     1  0.0000000  0.6508444  3
   1107   1096   1097   1117     1  0.0000000  0.6508444  3
   1112   1107   1096   1114     1  0.0000000  4.9162000  2
   1112   1107   1096   1114     1  0.0000000  0.6024960  3
   1114   1096   1097   1117     1  0.0000000  4.9162000  2
   1114   1096   1097   1117     1  0.0000000  0.6024960  3
   1114   1101   1100   1119     1  0.0000000  0.6508444  3
   1120   1121   1123   1124     1  180.0000771  0.8368000  1
   1120   1121   1123   1124     1  180.0000771  1.0460000  2
   1120   1121   1123   1124     1  0.0000000  0.7531200  3
   1120   1121   1123   1130     1  0.0000000  0.6508444  3
   1120   1138   1125   1124     1  180.0000771  0.4184000  2
   1120   1138   1125   1124     1  0.0000000  1.6024720  3
   1120   1138   1125   1129     1  0.0000000  1.6038667  3
   1121   1120   1131   1136     1  0.0000000  0.6508444  3
   1121   1120   1138   1125     1  180.0000771  0.4184000  2
   1121   1120   1138   1125     1  0.0000000  1.6024720  3
   1121   1123   1124   1125     1  180.0000771  0.8368000  1
   1121   1123   1124   1125     1  180.0000771  1.0460000  2
   1121   1123   1124   1125     1  0.0000000  0.7531200  3
   1121   1123   1124   1143     1  0.0000000  0.6508444  3
   1123   1121   1120   1131     1  180.0000771  0.8368000  1
   1123   1121   1120   1131     1  180.0000771  1.0460000  2
   1123   1121   1120   1131     1  0.0000000  0.7531200  3
   1123   1121   1120   1138     1  0.0000000  0.6508444  3
   1123   1124   1125   1129     1  0.0000000  0.6508444  3
   1123   1124   1125   1138     1  0.0000000  0.6508444  3
   1124   1123   1121   1141     1  0.0000000  0.6508444  3
   1125   1124   1123   1130     1  0.0000000  0.6508444  3
   1125   1138   1120   1131     1  180.0000771  0.4184000  2
   1125   1138   1120   1131     1  0.0000000  1.6024720  3
   1129   1125   1124   1143     1  0.0000000  0.6508444  3
   1130   1123   1121   1141     1  0.0000000  4.9162000  2
   1130   1123   1121   1141     1  0.0000000  0.6024960  3
   1130   1123   1124   1143     1  0.0000000  0.6508444  3
   1131   1120   1121   1141     1  0.0000000  0.6508444  3
   1136   1131   1120   1138     1  0.0000000  4.9162000  2
   1136   1131   1120   1138     1  0.0000000  0.6024960  3
   1138   1120   1121   1141     1  0.0000000  4.9162000  2
   1138   1120   1121   1141     1  0.0000000  0.6024960  3
   1138   1125   1124   1143     1  0.0000000  0.6508444  3
   1144   1146   1148   1152     1  0.0000000  0.6508444  3
   1146   1148   1152   1153     1  180.0000771  2.0083200  2
   1146   1148   1152   1153     1  0.0000000  1.2552000  3
   1146   1148   1152   1154     1  180.0000771  2.0083200  2
   1146   1148   1152   1154     1  0.0000000  1.2552000  3
   1148   1152   1153   1164     1  180.0000771  2.0083200  2
   1148   1152   1153   1164     1  0.0000000  1.2552000  3
   1148   1152   1154   1156     1  180.0000771  2.0083200  2
   1148   1152   1154   1156     1  0.0000000  1.2552000  3
   1152   1153   1164   1167     1  0.0000000  0.6508444  3
   1152   1154   1156   1160     1  0.0000000  0.6508444  3
   1153   1164   1167   1168     1  180.0000771  0.0000000  2
   1153   1164   1167   1216     1  180.0000771  0.0000000  2
   1153   1152   1154   1156     1  180.0000771  2.0083200  2
   1153   1152   1154   1156     1  0.0000000  1.2552000  3
   1154   1156   1160   1161     1  180.0000771  0.0000000  2
   1154   1156   1160   1192     1  180.0000771  0.0000000  2
   1154   1152   1153   1164     1  180.0000771  2.0083200  2
   1154   1152   1153   1164     1  0.0000000  1.2552000  3
   1156   1160   1192   1173     1  180.0000771  6.0668000  2
   1156   1160   1192   1173     1  180.0000771  1.4644000  4
   1160   1192   1173   1174     1  0.0000000  1.2552000  3
   1160   1192   1173   1172     1  0.0000000  1.2552000  3
   1161   1160   1192   1173     1  180.0000771  6.0668000  2
   1161   1160   1192   1173     1  180.0000771  1.4644000  4
   1164   1167   1216   1197     1  180.0000771  6.0668000  2
   1164   1167   1216   1197     1  180.0000771  1.4644000  4
   1167   1216   1197   1198     1  0.0000000  1.2552000  3
   1167   1216   1197   1196     1  0.0000000  1.2552000  3
   1168   1167   1216   1197     1  180.0000771  6.0668000  2
   1168   1167   1216   1197     1  180.0000771  1.4644000  4
   1169   1170   1172   1173     1  180.0000771  0.8368000  1
   1169   1170   1172   1173     1  180.0000771  1.0460000  2
   1169   1170   1172   1173     1  0.0000000  0.7531200  3
   1169   1170   1172   1179     1  0.0000000  0.6508444  3
   1169   1187   1174   1178     1  0.0000000  1.6038667  3
   1169   1187   1174   1173     1  180.0000771  0.4184000  2
   1169   1187   1174   1173     1  0.0000000  1.6024720  3
   1170   1172   1173   1174     1  180.0000771  0.8368000  1
   1170   1172   1173   1174     1  180.0000771  1.0460000  2
   1170   1172   1173   1174     1  0.0000000  0.7531200  3
   1170   1172   1173   1192     1  0.0000000  0.6508444  3
   1170   1169   1180   1185     1  0.0000000  0.6508444  3
   1170   1169   1187   1174     1  180.0000771  0.4184000  2
   1170   1169   1187   1174     1  0.0000000  1.6024720  3
   1172   1173   1174   1178     1  0.0000000  0.6508444  3
   1172   1173   1174   1187     1  0.0000000  0.6508444  3
   1172   1170   1169   1180     1  180.0000771  0.8368000  1
   1172   1170   1169   1180     1  180.0000771  1.0460000  2
   1172   1170   1169   1180     1  0.0000000  0.7531200  3
   1172   1170   1169   1187     1  0.0000000  0.6508444  3
   1173   1172   1170   1190     1  0.0000000  0.6508444  3
   1174   1187   1169   1180     1  180.0000771  0.4184000  2
   1174   1187   1169   1180     1  0.0000000  1.6024720  3
   1174   1173   1172   1179     1  0.0000000  0.6508444  3
   1178   1174   1173   1192     1  0.0000000  0.6508444  3
   1179   1172   1173   1192     1  0.0000000  0.6508444  3
   1179   1172   1170   1190     1  0.0000000  4.9162000  2
   1179   1172   1170   1190     1  0.0000000  0.6024960  3
   1180   1169   1170   1190     1  0.0000000  0.6508444  3
   1185   1180   1169   1187     1  0.0000000  4.9162000  2
   1185   1180   1169   1187     1  0.0000000  0.6024960  3
   1187   1174   1173   1192     1  0.0000000  0.6508444  3
   1187   1169   1170   1190     1  0.0000000  4.9162000  2
   1187   1169   1170   1190     1  0.0000000  0.6024960  3
   1193   1194   1196   1197     1  180.0000771  0.8368000  1
   1193   1194   1196   1197     1  180.0000771  1.0460000  2
   1193   1194   1196   1197     1  0.0000000  0.7531200  3
   1193   1194   1196   1203     1  0.0000000  0.6508444  3
   1193   1211   1198   1202     1  0.0000000  1.6038667  3
   1193   1211   1198   1197     1  180.0000771  0.4184000  2
   1193   1211   1198   1197     1  0.0000000  1.6024720  3
   1194   1196   1197   1198     1  180.0000771  0.8368000  1
   1194   1196   1197   1198     1  180.0000771  1.0460000  2
   1194   1196   1197   1198     1  0.0000000  0.7531200  3
   1194   1196   1197   1216     1  0.0000000  0.6508444  3
   1194   1193   1204   1209     1  0.0000000  0.6508444  3
   1194   1193   1211   1198     1  180.0000771  0.4184000  2
   1194   1193   1211   1198     1  0.0000000  1.6024720  3
   1196   1197   1198   1202     1  0.0000000  0.6508444  3
   1196   1197   1198   1211     1  0.0000000  0.6508444  3
   1196   1194   1193   1204     1  180.0000771  0.8368000  1
   1196   1194   1193   1204     1  180.0000771  1.0460000  2
   1196   1194   1193   1204     1  0.0000000  0.7531200  3
   1196   1194   1193   1211     1  0.0000000  0.6508444  3
   1197   1196   1194   1214     1  0.0000000  0.6508444  3
   1198   1211   1193   1204     1  180.0000771  0.4184000  2
   1198   1211   1193   1204     1  0.0000000  1.6024720  3
   1198   1197   1196   1203     1  0.0000000  0.6508444  3
   1202   1198   1197   1216     1  0.0000000  0.6508444  3
   1203   1196   1197   1216     1  0.0000000  0.6508444  3
   1203   1196   1194   1214     1  0.0000000  4.9162000  2
   1203   1196   1194   1214     1  0.0000000  0.6024960  3
   1204   1193   1194   1214     1  0.0000000  0.6508444  3
   1209   1204   1193   1211     1  0.0000000  4.9162000  2
   1209   1204   1193   1211     1  0.0000000  0.6024960  3
   1211   1198   1197   1216     1  0.0000000  0.6508444  3
   1211   1193   1194   1214     1  0.0000000  4.9162000  2
   1211   1193   1194   1214     1  0.0000000  0.6024960  3
   1217   1219   1221   1225     1  0.0000000  0.6508444  3
   1219   1221   1225   1226     1  180.0000771  2.0083200  2
   1219   1221   1225   1226     1  0.0000000  1.2552000  3
   1219   1221   1225   1227     1  180.0000771  2.0083200  2
   1219   1221   1225   1227     1  0.0000000  1.2552000  3
   1221   1225   1226   1237     1  180.0000771  2.0083200  2
   1221   1225   1226   1237     1  0.0000000  1.2552000  3
   1221   1225   1227   1229     1  180.0000771  2.0083200  2
   1221   1225   1227   1229     1  0.0000000  1.2552000  3
   1225   1226   1237   1240     1  0.0000000  0.6508444  3
   1225   1227   1229   1233     1  0.0000000  0.6508444  3
   1226   1225   1227   1229     1  180.0000771  2.0083200  2
   1226   1225   1227   1229     1  0.0000000  1.2552000  3
   1226   1237   1240   1241     1  180.0000771  0.0000000  2
   1226   1237   1240   1289     1  180.0000771  0.0000000  2
   1227   1225   1226   1237     1  180.0000771  2.0083200  2
   1227   1225   1226   1237     1  0.0000000  1.2552000  3
   1227   1229   1233   1234     1  180.0000771  0.0000000  2
   1227   1229   1233   1265     1  180.0000771  0.0000000  2
   1229   1233   1265   1246     1  180.0000771  6.0668000  2
   1229   1233   1265   1246     1  180.0000771  1.4644000  4
   1233   1265   1246   1245     1  0.0000000  1.2552000  3
   1233   1265   1246   1247     1  0.0000000  1.2552000  3
   1234   1233   1265   1246     1  180.0000771  6.0668000  2
   1234   1233   1265   1246     1  180.0000771  1.4644000  4
   1237   1240   1289   1270     1  180.0000771  6.0668000  2
   1237   1240   1289   1270     1  180.0000771  1.4644000  4
   1240   1289   1270   1269     1  0.0000000  1.2552000  3
   1240   1289   1270   1271     1  0.0000000  1.2552000  3
   1241   1240   1289   1270     1  180.0000771  6.0668000  2
   1241   1240   1289   1270     1  180.0000771  1.4644000  4
   1242   1243   1245   1246     1  180.0000771  0.8368000  1
   1242   1243   1245   1246     1  180.0000771  1.0460000  2
   1242   1243   1245   1246     1  0.0000000  0.7531200  3
   1242   1243   1245   1252     1  0.0000000  0.6508444  3
   1242   1260   1247   1246     1  180.0000771  0.4184000  2
   1242   1260   1247   1246     1  0.0000000  1.6024720  3
   1242   1260   1247   1251     1  0.0000000  1.6038667  3
   1243   1242   1253   1258     1  0.0000000  0.6508444  3
   1243   1242   1260   1247     1  180.0000771  0.4184000  2
   1243   1242   1260   1247     1  0.0000000  1.6024720  3
   1243   1245   1246   1247     1  180.0000771  0.8368000  1
   1243   1245   1246   1247     1  180.0000771  1.0460000  2
   1243   1245   1246   1247     1  0.0000000  0.7531200  3
   1243   1245   1246   1265     1  0.0000000  0.6508444  3
   1245   1243   1242   1253     1  180.0000771  0.8368000  1
   1245   1243   1242   1253     1  180.0000771  1.0460000  2
   1245   1243   1242   1253     1  0.0000000  0.7531200  3
   1245   1243   1242   1260     1  0.0000000  0.6508444  3
   1245   1246   1247   1251     1  0.0000000  0.6508444  3
   1245   1246   1247   1260     1  0.0000000  0.6508444  3
   1246   1245   1243   1263     1  0.0000000  0.6508444  3
   1247   1246   1245   1252     1  0.0000000  0.6508444  3
   1247   1260   1242   1253     1  180.0000771  0.4184000  2
   1247   1260   1242   1253     1  0.0000000  1.6024720  3
   1251   1247   1246   1265     1  0.0000000  0.6508444  3
   1252   1245   1243   1263     1  0.0000000  4.9162000  2
   1252   1245   1243   1263     1  0.0000000  0.6024960  3
   1252   1245   1246   1265     1  0.0000000  0.6508444  3
   1253   1242   1243   1263     1  0.0000000  0.6508444  3
   1258   1253   1242   1260     1  0.0000000  4.9162000  2
   1258   1253   1242   1260     1  0.0000000  0.6024960  3
   1260   1242   1243   1263     1  0.0000000  4.9162000  2
   1260   1242   1243   1263     1  0.0000000  0.6024960  3
   1260   1247   1246   1265     1  0.0000000  0.6508444  3
   1266   1267   1269   1270     1  180.0000771  0.8368000  1
   1266   1267   1269   1270     1  180.0000771  1.0460000  2
   1266   1267   1269   1270     1  0.0000000  0.7531200  3
   1266   1267   1269   1276     1  0.0000000  0.6508444  3
   1266   1284   1271   1270     1  180.0000771  0.4184000  2
   1266   1284   1271   1270     1  0.0000000  1.6024720  3
   1266   1284   1271   1275     1  0.0000000  1.6038667  3
   1267   1266   1277   1282     1  0.0000000  0.6508444  3
   1267   1266   1284   1271     1  180.0000771  0.4184000  2
   1267   1266   1284   1271     1  0.0000000  1.6024720  3
   1267   1269   1270   1271     1  180.0000771  0.8368000  1
   1267   1269   1270   1271     1  180.0000771  1.0460000  2
   1267   1269   1270   1271     1  0.0000000  0.7531200  3
   1267   1269   1270   1289     1  0.0000000  0.6508444  3
   1269   1267   1266   1277     1  180.0000771  0.8368000  1
   1269   1267   1266   1277     1  180.0000771  1.0460000  2
   1269   1267   1266   1277     1  0.0000000  0.7531200  3
   1269   1267   1266   1284     1  0.0000000  0.6508444  3
   1269   1270   1271   1275     1  0.0000000  0.6508444  3
   1269   1270   1271   1284     1  0.0000000  0.6508444  3
   1270   1269   1267   1287     1  0.0000000  0.6508444  3
   1271   1270   1269   1276     1  0.0000000  0.6508444  3
   1271   1284   1266   1277     1  180.0000771  0.4184000  2
   1271   1284   1266   1277     1  0.0000000  1.6024720  3
   1275   1271   1270   1289     1  0.0000000  0.6508444  3
   1276   1269   1267   1287     1  0.0000000  4.9162000  2
   1276   1269   1267   1287     1  0.0000000  0.6024960  3
   1276   1269   1270   1289     1  0.0000000  0.6508444  3
   1277   1266   1267   1287     1  0.0000000  0.6508444  3
   1282   1277   1266   1284     1  0.0000000  4.9162000  2
   1282   1277   1266   1284     1  0.0000000  0.6024960  3
   1284   1266   1267   1287     1  0.0000000  4.9162000  2
   1284   1266   1267   1287     1  0.0000000  0.6024960  3
   1284   1271   1270   1289     1  0.0000000  0.6508444  3
   1290   1292   1294   1298     1  0.0000000  0.6508444  3
   1292   1294   1298   1299     1  180.0000771  2.0083200  2
   1292   1294   1298   1299     1  0.0000000  1.2552000  3
   1292   1294   1298   1300     1  180.0000771  2.0083200  2
   1292   1294   1298   1300     1  0.0000000  1.2552000  3
   1294   1298   1299   1310     1  180.0000771  2.0083200  2
   1294   1298   1299   1310     1  0.0000000  1.2552000  3
   1294   1298   1300   1302     1  180.0000771  2.0083200  2
   1294   1298   1300   1302     1  0.0000000  1.2552000  3
   1298   1299   1310   1313     1  0.0000000  0.6508444  3
   1298   1300   1302   1306     1  0.0000000  0.6508444  3
   1299   1310   1313   1314     1  180.0000771  0.0000000  2
   1299   1310   1313   1362     1  180.0000771  0.0000000  2
   1299   1298   1300   1302     1  180.0000771  2.0083200  2
   1299   1298   1300   1302     1  0.0000000  1.2552000  3
   1300   1302   1306   1307     1  180.0000771  0.0000000  2
   1300   1302   1306   1338     1  180.0000771  0.0000000  2
   1300   1298   1299   1310     1  180.0000771  2.0083200  2
   1300   1298   1299   1310     1  0.0000000  1.2552000  3
   1302   1306   1338   1319     1  180.0000771  6.0668000  2
   1302   1306   1338   1319     1  180.0000771  1.4644000  4
   1306   1338   1319   1320     1  0.0000000  1.2552000  3
   1306   1338   1319   1318     1  0.0000000  1.2552000  3
   1307   1306   1338   1319     1  180.0000771  6.0668000  2
   1307   1306   1338   1319     1  180.0000771  1.4644000  4
   1310   1313   1362   1343     1  180.0000771  6.0668000  2
   1310   1313   1362   1343     1  180.0000771  1.4644000  4
   1313   1362   1343   1344     1  0.0000000  1.2552000  3
   1313   1362   1343   1342     1  0.0000000  1.2552000  3
   1314   1313   1362   1343     1  180.0000771  6.0668000  2
   1314   1313   1362   1343     1  180.0000771  1.4644000  4
   1315   1316   1318   1319     1  180.0000771  0.8368000  1
   1315   1316   1318   1319     1  180.0000771  1.0460000  2
   1315   1316   1318   1319     1  0.0000000  0.7531200  3
   1315   1316   1318   1325     1  0.0000000  0.6508444  3
   1315   1333   1320   1324     1  0.0000000  1.6038667  3
   1315   1333   1320   1319     1  180.0000771  0.4184000  2
   1315   1333   1320   1319     1  0.0000000  1.6024720  3
   1316   1318   1319   1320     1  180.0000771  0.8368000  1
   1316   1318   1319   1320     1  180.0000771  1.0460000  2
   1316   1318   1319   1320     1  0.0000000  0.7531200  3
   1316   1318   1319   1338     1  0.0000000  0.6508444  3
   1316   1315   1326   1331     1  0.0000000  0.6508444  3
   1316   1315   1333   1320     1  180.0000771  0.4184000  2
   1316   1315   1333   1320     1  0.0000000  1.6024720  3
   1318   1319   1320   1324     1  0.0000000  0.6508444  3
   1318   1319   1320   1333     1  0.0000000  0.6508444  3
   1318   1316   1315   1326     1  180.0000771  0.8368000  1
   1318   1316   1315   1326     1  180.0000771  1.0460000  2
   1318   1316   1315   1326     1  0.0000000  0.7531200  3
   1318   1316   1315   1333     1  0.0000000  0.6508444  3
   1319   1318   1316   1336     1  0.0000000  0.6508444  3
   1320   1333   1315   1326     1  180.0000771  0.4184000  2
   1320   1333   1315   1326     1  0.0000000  1.6024720  3
   1320   1319   1318   1325     1  0.0000000  0.6508444  3
   1324   1320   1319   1338     1  0.0000000  0.6508444  3
   1325   1318   1319   1338     1  0.0000000  0.6508444  3
   1325   1318   1316   1336     1  0.0000000  4.9162000  2
   1325   1318   1316   1336     1  0.0000000  0.6024960  3
   1326   1315   1316   1336     1  0.0000000  0.6508444  3
   1331   1326   1315   1333     1  0.0000000  4.9162000  2
   1331   1326   1315   1333     1  0.0000000  0.6024960  3
   1333   1320   1319   1338     1  0.0000000  0.6508444  3
   1333   1315   1316   1336     1  0.0000000  4.9162000  2
   1333   1315   1316   1336     1  0.0000000  0.6024960  3
   1339   1340   1342   1343     1  180.0000771  0.8368000  1
   1339   1340   1342   1343     1  180.0000771  1.0460000  2
   1339   1340   1342   1343     1  0.0000000  0.7531200  3
   1339   1340   1342   1349     1  0.0000000  0.6508444  3
   1339   1357   1344   1348     1  0.0000000  1.6038667  3
   1339   1357   1344   1343     1  180.0000771  0.4184000  2
   1339   1357   1344   1343     1  0.0000000  1.6024720  3
   1340   1342   1343   1344     1  180.0000771  0.8368000  1
   1340   1342   1343   1344     1  180.0000771  1.0460000  2
   1340   1342   1343   1344     1  0.0000000  0.7531200  3
   1340   1342   1343   1362     1  0.0000000  0.6508444  3
   1340   1339   1350   1355     1  0.0000000  0.6508444  3
   1340   1339   1357   1344     1  180.0000771  0.4184000  2
   1340   1339   1357   1344     1  0.0000000  1.6024720  3
   1342   1343   1344   1348     1  0.0000000  0.6508444  3
   1342   1343   1344   1357     1  0.0000000  0.6508444  3
   1342   1340   1339   1350     1  180.0000771  0.8368000  1
   1342   1340   1339   1350     1  180.0000771  1.0460000  2
   1342   1340   1339   1350     1  0.0000000  0.7531200  3
   1342   1340   1339   1357     1  0.0000000  0.6508444  3
   1343   1342   1340   1360     1  0.0000000  0.6508444  3
   1344   1357   1339   1350     1  180.0000771  0.4184000  2
   1344   1357   1339   1350     1  0.0000000  1.6024720  3
   1344   1343   1342   1349     1  0.0000000  0.6508444  3
   1348   1344   1343   1362     1  0.0000000  0.6508444  3
   1349   1342   1343   1362     1  0.0000000  0.6508444  3
   1349   1342   1340   1360     1  0.0000000  4.9162000  2
   1349   1342   1340   1360     1  0.0000000  0.6024960  3
   1350   1339   1340   1360     1  0.0000000  0.6508444  3
   1355   1350   1339   1357     1  0.0000000  4.9162000  2
   1355   1350   1339   1357     1  0.0000000  0.6024960  3
   1357   1344   1343   1362     1  0.0000000  0.6508444  3
   1357   1339   1340   1360     1  0.0000000  4.9162000  2
   1357   1339   1340   1360     1  0.0000000  0.6024960  3
   1363   1365   1367   1371     1  0.0000000  0.6508444  3
   1365   1367   1371   1372     1  180.0000771  2.0083200  2
   1365   1367   1371   1372     1  0.0000000  1.2552000  3
   1365   1367   1371   1373     1  180.0000771  2.0083200  2
   1365   1367   1371   1373     1  0.0000000  1.2552000  3
   1367   1371   1372   1383     1  180.0000771  2.0083200  2
   1367   1371   1372   1383     1  0.0000000  1.2552000  3
   1367   1371   1373   1375     1  180.0000771  2.0083200  2
   1367   1371   1373   1375     1  0.0000000  1.2552000  3
   1371   1372   1383   1386     1  0.0000000  0.6508444  3
   1371   1373   1375   1379     1  0.0000000  0.6508444  3
   1372   1371   1373   1375     1  180.0000771  2.0083200  2
   1372   1371   1373   1375     1  0.0000000  1.2552000  3
   1372   1383   1386   1387     1  180.0000771  0.0000000  2
   1372   1383   1386   1435     1  180.0000771  0.0000000  2
   1373   1371   1372   1383     1  180.0000771  2.0083200  2
   1373   1371   1372   1383     1  0.0000000  1.2552000  3
   1373   1375   1379   1380     1  180.0000771  0.0000000  2
   1373   1375   1379   1411     1  180.0000771  0.0000000  2
   1375   1379   1411   1392     1  180.0000771  6.0668000  2
   1375   1379   1411   1392     1  180.0000771  1.4644000  4
   1379   1411   1392   1391     1  0.0000000  1.2552000  3
   1379   1411   1392   1393     1  0.0000000  1.2552000  3
   1380   1379   1411   1392     1  180.0000771  6.0668000  2
   1380   1379   1411   1392     1  180.0000771  1.4644000  4
   1383   1386   1435   1416     1  180.0000771  6.0668000  2
   1383   1386   1435   1416     1  180.0000771  1.4644000  4
   1386   1435   1416   1415     1  0.0000000  1.2552000  3
   1386   1435   1416   1417     1  0.0000000  1.2552000  3
   1387   1386   1435   1416     1  180.0000771  6.0668000  2
   1387   1386   1435   1416     1  180.0000771  1.4644000  4
   1388   1389   1391   1392     1  180.0000771  0.8368000  1
   1388   1389   1391   1392     1  180.0000771  1.0460000  2
   1388   1389   1391   1392     1  0.0000000  0.7531200  3
   1388   1389   1391   1398     1  0.0000000  0.6508444  3
   1388   1406   1393   1392     1  180.0000771  0.4184000  2
   1388   1406   1393   1392     1  0.0000000  1.6024720  3
   1388   1406   1393   1397     1  0.0000000  1.6038667  3
   1389   1388   1399   1404     1  0.0000000  0.6508444  3
   1389   1388   1406   1393     1  180.0000771  0.4184000  2
   1389   1388   1406   1393     1  0.0000000  1.6024720  3
   1389   1391   1392   1393     1  180.0000771  0.8368000  1
   1389   1391   1392   1393     1  180.0000771  1.0460000  2
   1389   1391   1392   1393     1  0.0000000  0.7531200  3
   1389   1391   1392   1411     1  0.0000000  0.6508444  3
   1391   1389   1388   1399     1  180.0000771  0.8368000  1
   1391   1389   1388   1399     1  180.0000771  1.0460000  2
   1391   1389   1388   1399     1  0.0000000  0.7531200  3
   1391   1389   1388   1406     1  0.0000000  0.6508444  3
   1391   1392   1393   1397     1  0.0000000  0.6508444  3
   1391   1392   1393   1406     1  0.0000000  0.6508444  3
   1392   1391   1389   1409     1  0.0000000  0.6508444  3
   1393   1392   1391   1398     1  0.0000000  0.6508444  3
   1393   1406   1388   1399     1  180.0000771  0.4184000  2
   1393   1406   1388   1399     1  0.0000000  1.6024720  3
   1397   1393   1392   1411     1  0.0000000  0.6508444  3
   1398   1391   1389   1409     1  0.0000000  4.9162000  2
   1398   1391   1389   1409     1  0.0000000  0.6024960  3
   1398   1391   1392   1411     1  0.0000000  0.6508444  3
   1399   1388   1389   1409     1  0.0000000  0.6508444  3
   1404   1399   1388   1406     1  0.0000000  4.9162000  2
   1404   1399   1388   1406     1  0.0000000  0.6024960  3
   1406   1388   1389   1409     1  0.0000000  4.9162000  2
   1406   1388   1389   1409     1  0.0000000  0.6024960  3
   1406   1393   1392   1411     1  0.0000000  0.6508444  3
   1412   1413   1415   1416     1  180.0000771  0.8368000  1
   1412   1413   1415   1416     1  180.0000771  1.0460000  2
   1412   1413   1415   1416     1  0.0000000  0.7531200  3
   1412   1413   1415   1422     1  0.0000000  0.6508444  3
   1412   1430   1417   1416     1  180.0000771  0.4184000  2
   1412   1430   1417   1416     1  0.0000000  1.6024720  3
   1412   1430   1417   1421     1  0.0000000  1.6038667  3
   1413   1412   1423   1428     1  0.0000000  0.6508444  3
   1413   1412   1430   1417     1  180.0000771  0.4184000  2
   1413   1412   1430   1417     1  0.0000000  1.6024720  3
   1413   1415   1416   1417     1  180.0000771  0.8368000  1
   1413   1415   1416   1417     1  180.0000771  1.0460000  2
   1413   1415   1416   1417     1  0.0000000  0.7531200  3
   1413   1415   1416   1435     1  0.0000000  0.6508444  3
   1415   1413   1412   1423     1  180.0000771  0.8368000  1
   1415   1413   1412   1423     1  180.0000771  1.0460000  2
   1415   1413   1412   1423     1  0.0000000  0.7531200  3
   1415   1413   1412   1430     1  0.0000000  0.6508444  3
   1415   1416   1417   1421     1  0.0000000  0.6508444  3
   1415   1416   1417   1430     1  0.0000000  0.6508444  3
   1416   1415   1413   1433     1  0.0000000  0.6508444  3
   1417   1416   1415   1422     1  0.0000000  0.6508444  3
   1417   1430   1412   1423     1  180.0000771  0.4184000  2
   1417   1430   1412   1423     1  0.0000000  1.6024720  3
   1421   1417   1416   1435     1  0.0000000  0.6508444  3
   1422   1415   1413   1433     1  0.0000000  4.9162000  2
   1422   1415   1413   1433     1  0.0000000  0.6024960  3
   1422   1415   1416   1435     1  0.0000000  0.6508444  3
   1423   1412   1413   1433     1  0.0000000  0.6508444  3
   1428   1423   1412   1430     1  0.0000000  4.9162000  2
   1428   1423   1412   1430     1  0.0000000  0.6024960  3
   1430   1412   1413   1433     1  0.0000000  4.9162000  2
   1430   1412   1413   1433     1  0.0000000  0.6024960  3
   1430   1417   1416   1435     1  0.0000000  0.6508444  3
   1436   1438   1440   1444     1  0.0000000  0.6508444  3
   1438   1440   1444   1445     1  180.0000771  2.0083200  2
   1438   1440   1444   1445     1  0.0000000  1.2552000  3
   1438   1440   1444   1446     1  180.0000771  2.0083200  2
   1438   1440   1444   1446     1  0.0000000  1.2552000  3
   1440   1444   1445   1456     1  180.0000771  2.0083200  2
   1440   1444   1445   1456     1  0.0000000  1.2552000  3
   1440   1444   1446   1448     1  180.0000771  2.0083200  2
   1440   1444   1446   1448     1  0.0000000  1.2552000  3
   1444   1445   1456   1459     1  0.0000000  0.6508444  3
   1444   1446   1448   1452     1  0.0000000  0.6508444  3
   1445   1456   1459   1460     1  180.0000771  0.0000000  2
   1445   1456   1459   1508     1  180.0000771  0.0000000  2
   1445   1444   1446   1448     1  180.0000771  2.0083200  2
   1445   1444   1446   1448     1  0.0000000  1.2552000  3
   1446   1448   1452   1453     1  180.0000771  0.0000000  2
   1446   1448   1452   1484     1  180.0000771  0.0000000  2
   1446   1444   1445   1456     1  180.0000771  2.0083200  2
   1446   1444   1445   1456     1  0.0000000  1.2552000  3
   1448   1452   1484   1465     1  180.0000771  6.0668000  2
   1448   1452   1484   1465     1  180.0000771  1.4644000  4
   1452   1484   1465   1466     1  0.0000000  1.2552000  3
   1452   1484   1465   1464     1  0.0000000  1.2552000  3
   1453   1452   1484   1465     1  180.0000771  6.0668000  2
   1453   1452   1484   1465     1  180.0000771  1.4644000  4
   1456   1459   1508   1489     1  180.0000771  6.0668000  2
   1456   1459   1508   1489     1  180.0000771  1.4644000  4
   1459   1508   1489   1490     1  0.0000000  1.2552000  3
   1459   1508   1489   1488     1  0.0000000  1.2552000  3
   1460   1459   1508   1489     1  180.0000771  6.0668000  2
   1460   1459   1508   1489     1  180.0000771  1.4644000  4
   1461   1462   1464   1465     1  180.0000771  0.8368000  1
   1461   1462   1464   1465     1  180.0000771  1.0460000  2
   1461   1462   1464   1465     1  0.0000000  0.7531200  3
   1461   1462   1464   1471     1  0.0000000  0.6508444  3
   1461   1479   1466   1470     1  0.0000000  1.6038667  3
   1461   1479   1466   1465     1  180.0000771  0.4184000  2
   1461   1479   1466   1465     1  0.0000000  1.6024720  3
   1462   1464   1465   1466     1  180.0000771  0.8368000  1
   1462   1464   1465   1466     1  180.0000771  1.0460000  2
   1462   1464   1465   1466     1  0.0000000  0.7531200  3
   1462   1464   1465   1484     1  0.0000000  0.6508444  3
   1462   1461   1472   1477     1  0.0000000  0.6508444  3
   1462   1461   1479   1466     1  180.0000771  0.4184000  2
   1462   1461   1479   1466     1  0.0000000  1.6024720  3
   1464   1465   1466   1470     1  0.0000000  0.6508444  3
   1464   1465   1466   1479     1  0.0000000  0.6508444  3
   1464   1462   1461   1472     1  180.0000771  0.8368000  1
   1464   1462   1461   1472     1  180.0000771  1.0460000  2
   1464   1462   1461   1472     1  0.0000000  0.7531200  3
   1464   1462   1461   1479     1  0.0000000  0.6508444  3
   1465   1464   1462   1482     1  0.0000000  0.6508444  3
   1466   1479   1461   1472     1  180.0000771  0.4184000  2
   1466   1479   1461   1472     1  0.0000000  1.6024720  3
   1466   1465   1464   1471     1  0.0000000  0.6508444  3
   1470   1466   1465   1484     1  0.0000000  0.6508444  3
   1471   1464   1465   1484     1  0.0000000  0.6508444  3
   1471   1464   1462   1482     1  0.0000000  4.9162000  2
   1471   1464   1462   1482     1  0.0000000  0.6024960  3
   1472   1461   1462   1482     1  0.0000000  0.6508444  3
   1477   1472   1461   1479     1  0.0000000  4.9162000  2
   1477   1472   1461   1479     1  0.0000000  0.6024960  3
   1479   1466   1465   1484     1  0.0000000  0.6508444  3
   1479   1461   1462   1482     1  0.0000000  4.9162000  2
   1479   1461   1462   1482     1  0.0000000  0.6024960  3
   1485   1486   1488   1489     1  180.0000771  0.8368000  1
   1485   1486   1488   1489     1  180.0000771  1.0460000  2
   1485   1486   1488   1489     1  0.0000000  0.7531200  3
   1485   1486   1488   1495     1  0.0000000  0.6508444  3
   1485   1503   1490   1494     1  0.0000000  1.6038667  3
   1485   1503   1490   1489     1  180.0000771  0.4184000  2
   1485   1503   1490   1489     1  0.0000000  1.6024720  3
   1486   1488   1489   1490     1  180.0000771  0.8368000  1
   1486   1488   1489   1490     1  180.0000771  1.0460000  2
   1486   1488   1489   1490     1  0.0000000  0.7531200  3
   1486   1488   1489   1508     1  0.0000000  0.6508444  3
   1486   1485   1496   1501     1  0.0000000  0.6508444  3
   1486   1485   1503   1490     1  180.0000771  0.4184000  2
   1486   1485   1503   1490     1  0.0000000  1.6024720  3
   1488   1489   1490   1494     1  0.0000000  0.6508444  3
   1488   1489   1490   1503     1  0.0000000  0.6508444  3
   1488   1486   1485   1496     1  180.0000771  0.8368000  1
   1488   1486   1485   1496     1  180.0000771  1.0460000  2
   1488   1486   1485   1496     1  0.0000000  0.7531200  3
   1488   1486   1485   1503     1  0.0000000  0.6508444  3
   1489   1488   1486   1506     1  0.0000000  0.6508444  3
   1490   1503   1485   1496     1  180.0000771  0.4184000  2
   1490   1503   1485   1496     1  0.0000000  1.6024720  3
   1490   1489   1488   1495     1  0.0000000  0.6508444  3
   1494   1490   1489   1508     1  0.0000000  0.6508444  3
   1495   1488   1489   1508     1  0.0000000  0.6508444  3
   1495   1488   1486   1506     1  0.0000000  4.9162000  2
   1495   1488   1486   1506     1  0.0000000  0.6024960  3
   1496   1485   1486   1506     1  0.0000000  0.6508444  3
   1501   1496   1485   1503     1  0.0000000  4.9162000  2
   1501   1496   1485   1503     1  0.0000000  0.6024960  3
   1503   1490   1489   1508     1  0.0000000  0.6508444  3
   1503   1485   1486   1506     1  0.0000000  4.9162000  2
   1503   1485   1486   1506     1  0.0000000  0.6024960  3
     27     64     33     37     4  180.0000771  43.9320000  2
     30     89     34     40     4  180.0000771  43.9320000  2
     21    114     35     38     4  180.0000771  43.9320000  2
     24    139     36     39     4  180.0000771  43.9320000  2
     54    164     60     62     4  180.0000771  43.9320000  2
     57    189     61     63     4  180.0000771  43.9320000  2
     79    214     85     87     4  180.0000771  43.9320000  2
     82    239     86     88     4  180.0000771  43.9320000  2
    104    264    110    112     4  180.0000771  43.9320000  2
    107    289    111    113     4  180.0000771  43.9320000  2
    129    314    135    137     4  180.0000771  43.9320000  2
    132    339    136    138     4  180.0000771  43.9320000  2
    154    341    160    162     4  180.0000771  43.9320000  2
    157    414    161    163     4  180.0000771  43.9320000  2
    179    487    185    187     4  180.0000771  43.9320000  2
    182    560    186    188     4  180.0000771  43.9320000  2
    204    633    210    212     4  180.0000771  43.9320000  2
    207    706    211    213     4  180.0000771  43.9320000  2
    229    779    235    237     4  180.0000771  43.9320000  2
    232    852    236    238     4  180.0000771  43.9320000  2
    254    925    260    262     4  180.0000771  43.9320000  2
    257    998    261    263     4  180.0000771  43.9320000  2
    279   1071    285    287     4  180.0000771  43.9320000  2
    282   1144    286    288     4  180.0000771  43.9320000  2
    304   1217    310    312     4  180.0000771  43.9320000  2
    307   1290    311    313     4  180.0000771  43.9320000  2
    329   1363    335    337     4  180.0000771  43.9320000  2
    332   1436    336    338     4  180.0000771  43.9320000  2
    353    389    357    358     4  180.0000771  43.9320000  2
    361    413    364    365     4  180.0000771  43.9320000  2
    426    462    430    431     4  180.0000771  43.9320000  2
    434    486    437    438     4  180.0000771  43.9320000  2
    499    535    503    504     4  180.0000771  43.9320000  2
    507    559    510    511     4  180.0000771  43.9320000  2
    572    608    576    577     4  180.0000771  43.9320000  2
    580    632    583    584     4  180.0000771  43.9320000  2
    645    681    649    650     4  180.0000771  43.9320000  2
    653    705    656    657     4  180.0000771  43.9320000  2
    718    754    722    723     4  180.0000771  43.9320000  2
    726    778    729    730     4  180.0000771  43.9320000  2
    791    827    795    796     4  180.0000771  43.9320000  2
    799    851    802    803     4  180.0000771  43.9320000  2
    864    900    868    869     4  180.0000771  43.9320000  2
    872    924    875    876     4  180.0000771  43.9320000  2
    937    973    941    942     4  180.0000771  43.9320000  2
    945    997    948    949     4  180.0000771  43.9320000  2
   1010   1046   1014   1015     4  180.0000771  43.9320000  2
   1018   1070   1021   1022     4  180.0000771  43.9320000  2
   1083   1119   1087   1088     4  180.0000771  43.9320000  2
   1091   1143   1094   1095     4  180.0000771  43.9320000  2
   1156   1192   1160   1161     4  180.0000771  43.9320000  2
   1164   1216   1167   1168     4  180.0000771  43.9320000  2
   1229   1265   1233   1234     4  180.0000771  43.9320000  2
   1237   1289   1240   1241     4  180.0000771  43.9320000  2
   1302   1338   1306   1307     4  180.0000771  43.9320000  2
   1310   1362   1313   1314     4  180.0000771  43.9320000  2
   1375   1411   1379   1380     4  180.0000771  43.9320000  2
   1383   1435   1386   1387     4  180.0000771  43.9320000  2
   1448   1484   1452   1453     4  180.0000771  43.9320000  2
   1456   1508   1459   1460     4  180.0000771  43.9320000  2
      1      8      9     10     1  0.0000000  1.2552000  3
      1      8      9     11     1  0.0000000  1.2552000  3
      1      8     12     13     1  0.0000000  1.2552000  3
      1      8     12     14     1  0.0000000  1.2552000  3
      2      1      4      7     1  0.0000000  0.6508444  3
      2      1      4      5     1  0.0000000  0.6508444  3
      2      1      4      6     1  0.0000000  0.6508444  3
      2      1      8      9     1  0.0000000  1.2552000  3
      2      1      8     12     1  0.0000000  1.2552000  3
      3      1      4      7     1  0.0000000  0.6508444  3
      3      1      4      5     1  0.0000000  0.6508444  3
      3      1      4      6     1  0.0000000  0.6508444  3
      3      1      8      9     1  0.0000000  1.2552000  3
      3      1      8     12     1  0.0000000  1.2552000  3
      4      7     15     16     1  0.0000000  1.2552000  3
      4      7     15     17     1  0.0000000  1.2552000  3
      4      7     18     19     1  0.0000000  1.2552000  3
      4      7     18     20     1  0.0000000  1.2552000  3
      8      1      4      5     1  0.0000000  0.6508444  3
      5      4      7     15     1  0.0000000  1.2552000  3
      5      4      7     18     1  0.0000000  1.2552000  3
      8      1      4      6     1  0.0000000  0.6508444  3
      6      4      7     15     1  0.0000000  1.2552000  3
      6      4      7     18     1  0.0000000  1.2552000  3
      7     15     21     22     1  0.0000000  0.6508444  3
      7     15     21     23     1  0.0000000  0.6508444  3
      7     18     24     25     1  0.0000000  0.6508444  3
      7     18     24     26     1  0.0000000  0.6508444  3
      8      9     30     31     1  0.0000000  0.6508444  3
      8      9     30     32     1  0.0000000  0.6508444  3
      8     12     27     28     1  0.0000000  0.6508444  3
      8     12     27     29     1  0.0000000  0.6508444  3
      9      8     12     13     1  0.0000000  1.2552000  3
      9      8     12     14     1  0.0000000  1.2552000  3
     10      9      8     12     1  0.0000000  1.2552000  3
     10      9     30     34     1  0.0000000  0.6508444  3
     10      9     30     31     1  0.0000000  0.6508444  3
     10      9     30     32     1  0.0000000  0.6508444  3
     11      9      8     12     1  0.0000000  1.2552000  3
     11      9     30     34     1  0.0000000  0.6508444  3
     11      9     30     31     1  0.0000000  0.6508444  3
     11      9     30     32     1  0.0000000  0.6508444  3
     13     12     27     33     1  0.0000000  0.6508444  3
     13     12     27     28     1  0.0000000  0.6508444  3
     13     12     27     29     1  0.0000000  0.6508444  3
     14     12     27     33     1  0.0000000  0.6508444  3
     14     12     27     28     1  0.0000000  0.6508444  3
     14     12     27     29     1  0.0000000  0.6508444  3
     15      7     18     19     1  0.0000000  1.2552000  3
     15      7     18     20     1  0.0000000  1.2552000  3
     16     15      7     18     1  0.0000000  1.2552000  3
     16     15     21     35     1  0.0000000  0.6508444  3
     16     15     21     22     1  0.0000000  0.6508444  3
     16     15     21     23     1  0.0000000  0.6508444  3
     17     15      7     18     1  0.0000000  1.2552000  3
     17     15     21     35     1  0.0000000  0.6508444  3
     17     15     21     22     1  0.0000000  0.6508444  3
     17     15     21     23     1  0.0000000  0.6508444  3
     19     18     24     36     1  0.0000000  0.6508444  3
     19     18     24     25     1  0.0000000  0.6508444  3
     19     18     24     26     1  0.0000000  0.6508444  3
     20     18     24     36     1  0.0000000  0.6508444  3
     20     18     24     25     1  0.0000000  0.6508444  3
     20     18     24     26     1  0.0000000  0.6508444  3
     21     35    114    115     1  180.0000771  10.4600000  2
     22     21     35     38     1  0.0000000  3.3472000  1
     22     21     35     38     1  0.0000000  0.0000000  2
     22     21     35     38     1  180.0000771  0.3347200  3
     22     21     35    114     1  180.0000771  0.0000000  2
     23     21     35     38     1  0.0000000  3.3472000  1
     23     21     35     38     1  0.0000000  0.0000000  2
     23     21     35     38     1  180.0000771  0.3347200  3
     23     21     35    114     1  180.0000771  0.0000000  2
     24     36    139    140     1  180.0000771  10.4600000  2
     25     24     36     39     1  0.0000000  3.3472000  1
     25     24     36     39     1  0.0000000  0.0000000  2
     25     24     36     39     1  180.0000771  0.3347200  3
     25     24     36    139     1  180.0000771  0.0000000  2
     26     24     36     39     1  0.0000000  3.3472000  1
     26     24     36     39     1  0.0000000  0.0000000  2
     26     24     36     39     1  180.0000771  0.3347200  3
     26     24     36    139     1  180.0000771  0.0000000  2
     27     33     64     65     1  180.0000771  10.4600000  2
     28     27     33     37     1  0.0000000  3.3472000  1
     28     27     33     37     1  0.0000000  0.0000000  2
     28     27     33     37     1  180.0000771  0.3347200  3
     28     27     33     64     1  180.0000771  0.0000000  2
     29     27     33     37     1  0.0000000  3.3472000  1
     29     27     33     37     1  0.0000000  0.0000000  2
     29     27     33     37     1  180.0000771  0.3347200  3
     29     27     33     64     1  180.0000771  0.0000000  2
     30     34     89     90     1  180.0000771  10.4600000  2
     31     30     34     40     1  0.0000000  3.3472000  1
     31     30     34     40     1  0.0000000  0.0000000  2
     31     30     34     40     1  180.0000771  0.3347200  3
     31     30     34     89     1  180.0000771  0.0000000  2
     32     30     34     40     1  0.0000000  3.3472000  1
     32     30     34     40     1  0.0000000  0.0000000  2
     32     30     34     40     1  180.0000771  0.3347200  3
     32     30     34     89     1  180.0000771  0.0000000  2
     33     64     44     45     1  0.0000000  0.0000000  2
     33     64     44     46     1  0.0000000  0.0000000  2
     34     89     69     70     1  0.0000000  0.0000000  2
     34     89     69     71     1  0.0000000  0.0000000  2
     35    114     94     95     1  0.0000000  0.0000000  2
     35    114     94     96     1  0.0000000  0.0000000  2
     36    139    119    120     1  0.0000000  0.0000000  2
     36    139    119    121     1  0.0000000  0.0000000  2
     37     33     64     65     1  0.0000000  8.3680000  1
     37     33     64     65     1  180.0000771  10.4600000  2
     38     35    114    115     1  0.0000000  8.3680000  1
     38     35    114    115     1  180.0000771  10.4600000  2
     39     36    139    140     1  0.0000000  8.3680000  1
     39     36    139    140     1  180.0000771  10.4600000  2
     40     34     89     90     1  0.0000000  8.3680000  1
     40     34     89     90     1  180.0000771  10.4600000  2
     41     44     64     65     1  0.0000000  0.0000000  2
     41     47     48     49     1  0.0000000  1.2552000  3
     41     47     48     50     1  0.0000000  1.2552000  3
     41     47     51     52     1  0.0000000  1.2552000  3
     41     47     51     53     1  0.0000000  1.2552000  3
     42     41     44     64     1  0.0000000  0.6508444  3
     42     41     44     45     1  0.0000000  0.6508444  3
     42     41     44     46     1  0.0000000  0.6508444  3
     42     41     47     48     1  0.0000000  1.2552000  3
     42     41     47     51     1  0.0000000  1.2552000  3
     43     41     44     64     1  0.0000000  0.6508444  3
     43     41     44     45     1  0.0000000  0.6508444  3
     43     41     44     46     1  0.0000000  0.6508444  3
     43     41     47     48     1  0.0000000  1.2552000  3
     43     41     47     51     1  0.0000000  1.2552000  3
     45     44     41     47     1  0.0000000  0.6508444  3
     45     44     64     65     1  0.0000000  0.0000000  2
     46     44     41     47     1  0.0000000  0.6508444  3
     46     44     64     65     1  0.0000000  0.0000000  2
     47     48     57     58     1  0.0000000  0.6508444  3
     47     48     57     59     1  0.0000000  0.6508444  3
     47     51     54     55     1  0.0000000  0.6508444  3
     47     51     54     56     1  0.0000000  0.6508444  3
     48     47     51     52     1  0.0000000  1.2552000  3
     48     47     51     53     1  0.0000000  1.2552000  3
     49     48     47     51     1  0.0000000  1.2552000  3
     49     48     57     61     1  0.0000000  0.6508444  3
     49     48     57     58     1  0.0000000  0.6508444  3
     49     48     57     59     1  0.0000000  0.6508444  3
     50     48     47     51     1  0.0000000  1.2552000  3
     50     48     57     61     1  0.0000000  0.6508444  3
     50     48     57     58     1  0.0000000  0.6508444  3
     50     48     57     59     1  0.0000000  0.6508444  3
     52     51     54     60     1  0.0000000  0.6508444  3
     52     51     54     55     1  0.0000000  0.6508444  3
     52     51     54     56     1  0.0000000  0.6508444  3
     53     51     54     60     1  0.0000000  0.6508444  3
     53     51     54     55     1  0.0000000  0.6508444  3
     53     51     54     56     1  0.0000000  0.6508444  3
     54     60    164    165     1  180.0000771  10.4600000  2
     55     54     60     62     1  0.0000000  3.3472000  1
     55     54     60     62     1  0.0000000  0.0000000  2
     55     54     60     62     1  180.0000771  0.3347200  3
     55     54     60    164     1  180.0000771  0.0000000  2
     56     54     60     62     1  0.0000000  3.3472000  1
     56     54     60     62     1  0.0000000  0.0000000  2
     56     54     60     62     1  180.0000771  0.3347200  3
     56     54     60    164     1  180.0000771  0.0000000  2
     57     61    189    190     1  180.0000771  10.4600000  2
     58     57     61     63     1  0.0000000  3.3472000  1
     58     57     61     63     1  0.0000000  0.0000000  2
     58     57     61     63     1  180.0000771  0.3347200  3
     58     57     61    189     1  180.0000771  0.0000000  2
     59     57     61     63     1  0.0000000  3.3472000  1
     59     57     61     63     1  0.0000000  0.0000000  2
     59     57     61     63     1  180.0000771  0.3347200  3
     59     57     61    189     1  180.0000771  0.0000000  2
     60    164    144    145     1  0.0000000  0.0000000  2
     60    164    144    146     1  0.0000000  0.0000000  2
     61    189    169    170     1  0.0000000  0.0000000  2
     61    189    169    171     1  0.0000000  0.0000000  2
     62     60    164    165     1  0.0000000  8.3680000  1
     62     60    164    165     1  180.0000771  10.4600000  2
     63     61    189    190     1  0.0000000  8.3680000  1
     63     61    189    190     1  180.0000771  10.4600000  2
     66     69     89     90     1  0.0000000  0.0000000  2
     66     72     73     74     1  0.0000000  1.2552000  3
     66     72     73     75     1  0.0000000  1.2552000  3
     66     72     76     77     1  0.0000000  1.2552000  3
     66     72     76     78     1  0.0000000  1.2552000  3
     67     66     69     89     1  0.0000000  0.6508444  3
     67     66     69     70     1  0.0000000  0.6508444  3
     67     66     69     71     1  0.0000000  0.6508444  3
     67     66     72     73     1  0.0000000  1.2552000  3
     67     66     72     76     1  0.0000000  1.2552000  3
     68     66     69     89     1  0.0000000  0.6508444  3
     68     66     69     70     1  0.0000000  0.6508444  3
     68     66     69     71     1  0.0000000  0.6508444  3
     68     66     72     73     1  0.0000000  1.2552000  3
     68     66     72     76     1  0.0000000  1.2552000  3
     70     69     66     72     1  0.0000000  0.6508444  3
     70     69     89     90     1  0.0000000  0.0000000  2
     71     69     66     72     1  0.0000000  0.6508444  3
     71     69     89     90     1  0.0000000  0.0000000  2
     72     73     82     83     1  0.0000000  0.6508444  3
     72     73     82     84     1  0.0000000  0.6508444  3
     72     76     79     80     1  0.0000000  0.6508444  3
     72     76     79     81     1  0.0000000  0.6508444  3
     73     72     76     77     1  0.0000000  1.2552000  3
     73     72     76     78     1  0.0000000  1.2552000  3
     74     73     72     76     1  0.0000000  1.2552000  3
     74     73     82     86     1  0.0000000  0.6508444  3
     74     73     82     83     1  0.0000000  0.6508444  3
     74     73     82     84     1  0.0000000  0.6508444  3
     75     73     72     76     1  0.0000000  1.2552000  3
     75     73     82     86     1  0.0000000  0.6508444  3
     75     73     82     83     1  0.0000000  0.6508444  3
     75     73     82     84     1  0.0000000  0.6508444  3
     77     76     79     85     1  0.0000000  0.6508444  3
     77     76     79     80     1  0.0000000  0.6508444  3
     77     76     79     81     1  0.0000000  0.6508444  3
     78     76     79     85     1  0.0000000  0.6508444  3
     78     76     79     80     1  0.0000000  0.6508444  3
     78     76     79     81     1  0.0000000  0.6508444  3
     79     85    214    215     1  180.0000771  10.4600000  2
     80     79     85     87     1  0.0000000  3.3472000  1
     80     79     85     87     1  0.0000000  0.0000000  2
     80     79     85     87     1  180.0000771  0.3347200  3
     80     79     85    214     1  180.0000771  0.0000000  2
     81     79     85     87     1  0.0000000  3.3472000  1
     81     79     85     87     1  0.0000000  0.0000000  2
     81     79     85     87     1  180.0000771  0.3347200  3
     81     79     85    214     1  180.0000771  0.0000000  2
     82     86    239    240     1  180.0000771  10.4600000  2
     83     82     86     88     1  0.0000000  3.3472000  1
     83     82     86     88     1  0.0000000  0.0000000  2
     83     82     86     88     1  180.0000771  0.3347200  3
     83     82     86    239     1  180.0000771  0.0000000  2
     84     82     86     88     1  0.0000000  3.3472000  1
     84     82     86     88     1  0.0000000  0.0000000  2
     84     82     86     88     1  180.0000771  0.3347200  3
     84     82     86    239     1  180.0000771  0.0000000  2
     85    214    194    195     1  0.0000000  0.0000000  2
     85    214    194    196     1  0.0000000  0.0000000  2
     86    239    219    220     1  0.0000000  0.0000000  2
     86    239    219    221     1  0.0000000  0.0000000  2
     87     85    214    215     1  0.0000000  8.3680000  1
     87     85    214    215     1  180.0000771  10.4600000  2
     88     86    239    240     1  0.0000000  8.3680000  1
     88     86    239    240     1  180.0000771  10.4600000  2
     91     94    114    115     1  0.0000000  0.0000000  2
     91     97     98     99     1  0.0000000  1.2552000  3
     91     97     98    100     1  0.0000000  1.2552000  3
     91     97    101    102     1  0.0000000  1.2552000  3
     91     97    101    103     1  0.0000000  1.2552000  3
     92     91     94    114     1  0.0000000  0.6508444  3
     92     91     94     95     1  0.0000000  0.6508444  3
     92     91     94     96     1  0.0000000  0.6508444  3
     92     91     97     98     1  0.0000000  1.2552000  3
     92     91     97    101     1  0.0000000  1.2552000  3
     93     91     94    114     1  0.0000000  0.6508444  3
     93     91     94     95     1  0.0000000  0.6508444  3
     93     91     94     96     1  0.0000000  0.6508444  3
     93     91     97     98     1  0.0000000  1.2552000  3
     93     91     97    101     1  0.0000000  1.2552000  3
     95     94     91     97     1  0.0000000  0.6508444  3
     95     94    114    115     1  0.0000000  0.0000000  2
     96     94     91     97     1  0.0000000  0.6508444  3
     96     94    114    115     1  0.0000000  0.0000000  2
     97     98    107    108     1  0.0000000  0.6508444  3
     97     98    107    109     1  0.0000000  0.6508444  3
     97    101    104    105     1  0.0000000  0.6508444  3
     97    101    104    106     1  0.0000000  0.6508444  3
     98     97    101    102     1  0.0000000  1.2552000  3
     98     97    101    103     1  0.0000000  1.2552000  3
     99     98     97    101     1  0.0000000  1.2552000  3
     99     98    107    111     1  0.0000000  0.6508444  3
     99     98    107    108     1  0.0000000  0.6508444  3
     99     98    107    109     1  0.0000000  0.6508444  3
    100     98     97    101     1  0.0000000  1.2552000  3
    100     98    107    111     1  0.0000000  0.6508444  3
    100     98    107    108     1  0.0000000  0.6508444  3
    100     98    107    109     1  0.0000000  0.6508444  3
    102    101    104    110     1  0.0000000  0.6508444  3
    102    101    104    105     1  0.0000000  0.6508444  3
    102    101    104    106     1  0.0000000  0.6508444  3
    103    101    104    110     1  0.0000000  0.6508444  3
    103    101    104    105     1  0.0000000  0.6508444  3
    103    101    104    106     1  0.0000000  0.6508444  3
    104    110    264    265     1  180.0000771  10.4600000  2
    105    104    110    112     1  0.0000000  3.3472000  1
    105    104    110    112     1  0.0000000  0.0000000  2
    105    104    110    112     1  180.0000771  0.3347200  3
    105    104    110    264     1  180.0000771  0.0000000  2
    106    104    110    112     1  0.0000000  3.3472000  1
    106    104    110    112     1  0.0000000  0.0000000  2
    106    104    110    112     1  180.0000771  0.3347200  3
    106    104    110    264     1  180.0000771  0.0000000  2
    107    111    289    290     1  180.0000771  10.4600000  2
    108    107    111    113     1  0.0000000  3.3472000  1
    108    107    111    113     1  0.0000000  0.0000000  2
    108    107    111    113     1  180.0000771  0.3347200  3
    108    107    111    289     1  180.0000771  0.0000000  2
    109    107    111    113     1  0.0000000  3.3472000  1
    109    107    111    113     1  0.0000000  0.0000000  2
    109    107    111    113     1  180.0000771  0.3347200  3
    109    107    111    289     1  180.0000771  0.0000000  2
    110    264    244    245     1  0.0000000  0.0000000  2
    110    264    244    246     1  0.0000000  0.0000000  2
    111    289    269    270     1  0.0000000  0.0000000  2
    111    289    269    271     1  0.0000000  0.0000000  2
    112    110    264    265     1  0.0000000  8.3680000  1
    112    110    264    265     1  180.0000771  10.4600000  2
    113    111    289    290     1  0.0000000  8.3680000  1
    113    111    289    290     1  180.0000771  10.4600000  2
    116    119    139    140     1  0.0000000  0.0000000  2
    116    122    123    124     1  0.0000000  1.2552000  3
    116    122    123    125     1  0.0000000  1.2552000  3
    116    122    126    127     1  0.0000000  1.2552000  3
    116    122    126    128     1  0.0000000  1.2552000  3
    117    116    119    139     1  0.0000000  0.6508444  3
    117    116    119    120     1  0.0000000  0.6508444  3
    117    116    119    121     1  0.0000000  0.6508444  3
    117    116    122    123     1  0.0000000  1.2552000  3
    117    116    122    126     1  0.0000000  1.2552000  3
    118    116    119    139     1  0.0000000  0.6508444  3
    118    116    119    120     1  0.0000000  0.6508444  3
    118    116    119    121     1  0.0000000  0.6508444  3
    118    116    122    123     1  0.0000000  1.2552000  3
    118    116    122    126     1  0.0000000  1.2552000  3
    120    119    116    122     1  0.0000000  0.6508444  3
    120    119    139    140     1  0.0000000  0.0000000  2
    121    119    116    122     1  0.0000000  0.6508444  3
    121    119    139    140     1  0.0000000  0.0000000  2
    122    123    132    133     1  0.0000000  0.6508444  3
    122    123    132    134     1  0.0000000  0.6508444  3
    122    126    129    130     1  0.0000000  0.6508444  3
    122    126    129    131     1  0.0000000  0.6508444  3
    123    122    126    127     1  0.0000000  1.2552000  3
    123    122    126    128     1  0.0000000  1.2552000  3
    124    123    122    126     1  0.0000000  1.2552000  3
    124    123    132    136     1  0.0000000  0.6508444  3
    124    123    132    133     1  0.0000000  0.6508444  3
    124    123    132    134     1  0.0000000  0.6508444  3
    125    123    122    126     1  0.0000000  1.2552000  3
    125    123    132    136     1  0.0000000  0.6508444  3
    125    123    132    133     1  0.0000000  0.6508444  3
    125    123    132    134     1  0.0000000  0.6508444  3
    127    126    129    135     1  0.0000000  0.6508444  3
    127    126    129    130     1  0.0000000  0.6508444  3
    127    126    129    131     1  0.0000000  0.6508444  3
    128    126    129    135     1  0.0000000  0.6508444  3
    128    126    129    130     1  0.0000000  0.6508444  3
    128    126    129    131     1  0.0000000  0.6508444  3
    129    135    314    315     1  180.0000771  10.4600000  2
    130    129    135    137     1  0.0000000  3.3472000  1
    130    129    135    137     1  0.0000000  0.0000000  2
    130    129    135    137     1  180.0000771  0.3347200  3
    130    129    135    314     1  180.0000771  0.0000000  2
    131    129    135    137     1  0.0000000  3.3472000  1
    131    129    135    137     1  0.0000000  0.0000000  2
    131    129    135    137     1  180.0000771  0.3347200  3
    131    129    135    314     1  180.0000771  0.0000000  2
    132    136    339    340     1  180.0000771  10.4600000  2
    133    132    136    138     1  0.0000000  3.3472000  1
    133    132    136    138     1  0.0000000  0.0000000  2
    133    132    136    138     1  180.0000771  0.3347200  3
    133    132    136    339     1  180.0000771  0.0000000  2
    134    132    136    138     1  0.0000000  3.3472000  1
    134    132    136    138     1  0.0000000  0.0000000  2
    134    132    136    138     1  180.0000771  0.3347200  3
    134    132    136    339     1  180.0000771  0.0000000  2
    135    314    294    295     1  0.0000000  0.0000000  2
    135    314    294    296     1  0.0000000  0.0000000  2
    136    339    319    320     1  0.0000000  0.0000000  2
    136    339    319    321     1  0.0000000  0.0000000  2
    137    135    314    315     1  0.0000000  8.3680000  1
    137    135    314    315     1  180.0000771  10.4600000  2
    138    136    339    340     1  0.0000000  8.3680000  1
    138    136    339    340     1  180.0000771  10.4600000  2
    141    144    164    165     1  0.0000000  0.0000000  2
    141    147    148    149     1  0.0000000  1.2552000  3
    141    147    148    150     1  0.0000000  1.2552000  3
    141    147    151    152     1  0.0000000  1.2552000  3
    141    147    151    153     1  0.0000000  1.2552000  3
    142    141    144    164     1  0.0000000  0.6508444  3
    142    141    144    145     1  0.0000000  0.6508444  3
    142    141    144    146     1  0.0000000  0.6508444  3
    142    141    147    148     1  0.0000000  1.2552000  3
    142    141    147    151     1  0.0000000  1.2552000  3
    143    141    144    164     1  0.0000000  0.6508444  3
    143    141    144    145     1  0.0000000  0.6508444  3
    143    141    144    146     1  0.0000000  0.6508444  3
    143    141    147    148     1  0.0000000  1.2552000  3
    143    141    147    151     1  0.0000000  1.2552000  3
    145    144    141    147     1  0.0000000  0.6508444  3
    145    144    164    165     1  0.0000000  0.0000000  2
    146    144    141    147     1  0.0000000  0.6508444  3
    146    144    164    165     1  0.0000000  0.0000000  2
    147    148    157    158     1  0.0000000  0.6508444  3
    147    148    157    159     1  0.0000000  0.6508444  3
    147    151    154    155     1  0.0000000  0.6508444  3
    147    151    154    156     1  0.0000000  0.6508444  3
    148    147    151    152     1  0.0000000  1.2552000  3
    148    147    151    153     1  0.0000000  1.2552000  3
    149    148    147    151     1  0.0000000  1.2552000  3
    149    148    157    161     1  0.0000000  0.6508444  3
    149    148    157    158     1  0.0000000  0.6508444  3
    149    148    157    159     1  0.0000000  0.6508444  3
    150    148    147    151     1  0.0000000  1.2552000  3
    150    148    157    161     1  0.0000000  0.6508444  3
    150    148    157    158     1  0.0000000  0.6508444  3
    150    148    157    159     1  0.0000000  0.6508444  3
    152    151    154    160     1  0.0000000  0.6508444  3
    152    151    154    155     1  0.0000000  0.6508444  3
    152    151    154    156     1  0.0000000  0.6508444  3
    153    151    154    160     1  0.0000000  0.6508444  3
    153    151    154    155     1  0.0000000  0.6508444  3
    153    151    154    156     1  0.0000000  0.6508444  3
    154    160    341    342     1  180.0000771  10.4600000  2
    155    154    160    341     1  180.0000771  0.0000000  2
    155    154    160    162     1  0.0000000  3.3472000  1
    155    154    160    162     1  0.0000000  0.0000000  2
    155    154    160    162     1  180.0000771  0.3347200  3
    156    154    160    341     1  180.0000771  0.0000000  2
    156    154    160    162     1  0.0000000  3.3472000  1
    156    154    160    162     1  0.0000000  0.0000000  2
    156    154    160    162     1  180.0000771  0.3347200  3
    157    161    414    415     1  180.0000771  10.4600000  2
    158    157    161    163     1  0.0000000  3.3472000  1
    158    157    161    163     1  0.0000000  0.0000000  2
    158    157    161    163     1  180.0000771  0.3347200  3
    158    157    161    414     1  180.0000771  0.0000000  2
    159    157    161    163     1  0.0000000  3.3472000  1
    159    157    161    163     1  0.0000000  0.0000000  2
    159    157    161    163     1  180.0000771  0.3347200  3
    159    157    161    414     1  180.0000771  0.0000000  2
    160    341    343    344     1  0.0000000  0.0000000  2
    160    341    343    346     1  0.0000000  0.0000000  2
    161    414    416    417     1  0.0000000  0.0000000  2
    161    414    416    419     1  0.0000000  0.0000000  2
    162    160    341    342     1  0.0000000  8.3680000  1
    162    160    341    342     1  180.0000771  10.4600000  2
    163    161    414    415     1  0.0000000  8.3680000  1
    163    161    414    415     1  180.0000771  10.4600000  2
    166    169    189    190     1  0.0000000  0.0000000  2
    166    172    173    174     1  0.0000000  1.2552000  3
    166    172    173    175     1  0.0000000  1.2552000  3
    166    172    176    177     1  0.0000000  1.2552000  3
    166    172    176    178     1  0.0000000  1.2552000  3
    167    166    169    189     1  0.0000000  0.6508444  3
    167    166    169    170     1  0.0000000  0.6508444  3
    167    166    169    171     1  0.0000000  0.6508444  3
    167    166    172    173     1  0.0000000  1.2552000  3
    167    166    172    176     1  0.0000000  1.2552000  3
    168    166    169    189     1  0.0000000  0.6508444  3
    168    166    169    170     1  0.0000000  0.6508444  3
    168    166    169    171     1  0.0000000  0.6508444  3
    168    166    172    173     1  0.0000000  1.2552000  3
    168    166    172    176     1  0.0000000  1.2552000  3
    170    169    166    172     1  0.0000000  0.6508444  3
    170    169    189    190     1  0.0000000  0.0000000  2
    171    169    166    172     1  0.0000000  0.6508444  3
    171    169    189    190     1  0.0000000  0.0000000  2
    172    173    182    183     1  0.0000000  0.6508444  3
    172    173    182    184     1  0.0000000  0.6508444  3
    172    176    179    180     1  0.0000000  0.6508444  3
    172    176    179    181     1  0.0000000  0.6508444  3
    173    172    176    177     1  0.0000000  1.2552000  3
    173    172    176    178     1  0.0000000  1.2552000  3
    174    173    172    176     1  0.0000000  1.2552000  3
    174    173    182    186     1  0.0000000  0.6508444  3
    174    173    182    183     1  0.0000000  0.6508444  3
    174    173    182    184     1  0.0000000  0.6508444  3
    175    173    172    176     1  0.0000000  1.2552000  3
    175    173    182    186     1  0.0000000  0.6508444  3
    175    173    182    183     1  0.0000000  0.6508444  3
    175    173    182    184     1  0.0000000  0.6508444  3
    177    176    179    185     1  0.0000000  0.6508444  3
    177    176    179    180     1  0.0000000  0.6508444  3
    177    176    179    181     1  0.0000000  0.6508444  3
    178    176    179    185     1  0.0000000  0.6508444  3
    178    176    179    180     1  0.0000000  0.6508444  3
    178    176    179    181     1  0.0000000  0.6508444  3
    179    185    487    488     1  180.0000771  10.4600000  2
    180    179    185    487     1  180.0000771  0.0000000  2
    180    179    185    187     1  0.0000000  3.3472000  1
    180    179    185    187     1  0.0000000  0.0000000  2
    180    179    185    187     1  180.0000771  0.3347200  3
    181    179    185    487     1  180.0000771  0.0000000  2
    181    179    185    187     1  0.0000000  3.3472000  1
    181    179    185    187     1  0.0000000  0.0000000  2
    181    179    185    187     1  180.0000771  0.3347200  3
    182    186    560    561     1  180.0000771  10.4600000  2
    183    182    186    188     1  0.0000000  3.3472000  1
    183    182    186    188     1  0.0000000  0.0000000  2
    183    182    186    188     1  180.0000771  0.3347200  3
    183    182    186    560     1  180.0000771  0.0000000  2
    184    182    186    188     1  0.0000000  3.3472000  1
    184    182    186    188     1  0.0000000  0.0000000  2
    184    182    186    188     1  180.0000771  0.3347200  3
    184    182    186    560     1  180.0000771  0.0000000  2
    185    487    489    490     1  0.0000000  0.0000000  2
    185    487    489    492     1  0.0000000  0.0000000  2
    186    560    562    563     1  0.0000000  0.0000000  2
    186    560    562    565     1  0.0000000  0.0000000  2
    187    185    487    488     1  0.0000000  8.3680000  1
    187    185    487    488     1  180.0000771  10.4600000  2
    188    186    560    561     1  0.0000000  8.3680000  1
    188    186    560    561     1  180.0000771  10.4600000  2
    191    194    214    215     1  0.0000000  0.0000000  2
    191    197    198    199     1  0.0000000  1.2552000  3
    191    197    198    200     1  0.0000000  1.2552000  3
    191    197    201    202     1  0.0000000  1.2552000  3
    191    197    201    203     1  0.0000000  1.2552000  3
    192    191    194    214     1  0.0000000  0.6508444  3
    192    191    194    195     1  0.0000000  0.6508444  3
    192    191    194    196     1  0.0000000  0.6508444  3
    192    191    197    198     1  0.0000000  1.2552000  3
    192    191    197    201     1  0.0000000  1.2552000  3
    193    191    194    214     1  0.0000000  0.6508444  3
    193    191    194    195     1  0.0000000  0.6508444  3
    193    191    194    196     1  0.0000000  0.6508444  3
    193    191    197    198     1  0.0000000  1.2552000  3
    193    191    197    201     1  0.0000000  1.2552000  3
    195    194    191    197     1  0.0000000  0.6508444  3
    195    194    214    215     1  0.0000000  0.0000000  2
    196    194    191    197     1  0.0000000  0.6508444  3
    196    194    214    215     1  0.0000000  0.0000000  2
    197    198    207    208     1  0.0000000  0.6508444  3
    197    198    207    209     1  0.0000000  0.6508444  3
    197    201    204    205     1  0.0000000  0.6508444  3
    197    201    204    206     1  0.0000000  0.6508444  3
    198    197    201    202     1  0.0000000  1.2552000  3
    198    197    201    203     1  0.0000000  1.2552000  3
    199    198    197    201     1  0.0000000  1.2552000  3
    199    198    207    211     1  0.0000000  0.6508444  3
    199    198    207    208     1  0.0000000  0.6508444  3
    199    198    207    209     1  0.0000000  0.6508444  3
    200    198    197    201     1  0.0000000  1.2552000  3
    200    198    207    211     1  0.0000000  0.6508444  3
    200    198    207    208     1  0.0000000  0.6508444  3
    200    198    207    209     1  0.0000000  0.6508444  3
    202    201    204    210     1  0.0000000  0.6508444  3
    202    201    204    205     1  0.0000000  0.6508444  3
    202    201    204    206     1  0.0000000  0.6508444  3
    203    201    204    210     1  0.0000000  0.6508444  3
    203    201    204    205     1  0.0000000  0.6508444  3
    203    201    204    206     1  0.0000000  0.6508444  3
    204    210    633    634     1  180.0000771  10.4600000  2
    205    204    210    633     1  180.0000771  0.0000000  2
    205    204    210    212     1  0.0000000  3.3472000  1
    205    204    210    212     1  0.0000000  0.0000000  2
    205    204    210    212     1  180.0000771  0.3347200  3
    206    204    210    633     1  180.0000771  0.0000000  2
    206    204    210    212     1  0.0000000  3.3472000  1
    206    204    210    212     1  0.0000000  0.0000000  2
    206    204    210    212     1  180.0000771  0.3347200  3
    207    211    706    707     1  180.0000771  10.4600000  2
    208    207    211    213     1  0.0000000  3.3472000  1
    208    207    211    213     1  0.0000000  0.0000000  2
    208    207    211    213     1  180.0000771  0.3347200  3
    208    207    211    706     1  180.0000771  0.0000000  2
    209    207    211    213     1  0.0000000  3.3472000  1
    209    207    211    213     1  0.0000000  0.0000000  2
    209    207    211    213     1  180.0000771  0.3347200  3
    209    207    211    706     1  180.0000771  0.0000000  2
    210    633    635    636     1  0.0000000  0.0000000  2
    210    633    635    638     1  0.0000000  0.0000000  2
    211    706    708    709     1  0.0000000  0.0000000  2
    211    706    708    711     1  0.0000000  0.0000000  2
    212    210    633    634     1  0.0000000  8.3680000  1
    212    210    633    634     1  180.0000771  10.4600000  2
    213    211    706    707     1  0.0000000  8.3680000  1
    213    211    706    707     1  180.0000771  10.4600000  2
    216    219    239    240     1  0.0000000  0.0000000  2
    216    222    223    224     1  0.0000000  1.2552000  3
    216    222    223    225     1  0.0000000  1.2552000  3
    216    222    226    227     1  0.0000000  1.2552000  3
    216    222    226    228     1  0.0000000  1.2552000  3
    217    216    219    239     1  0.0000000  0.6508444  3
    217    216    219    220     1  0.0000000  0.6508444  3
    217    216    219    221     1  0.0000000  0.6508444  3
    217    216    222    223     1  0.0000000  1.2552000  3
    217    216    222    226     1  0.0000000  1.2552000  3
    218    216    219    239     1  0.0000000  0.6508444  3
    218    216    219    220     1  0.0000000  0.6508444  3
    218    216    219    221     1  0.0000000  0.6508444  3
    218    216    222    223     1  0.0000000  1.2552000  3
    218    216    222    226     1  0.0000000  1.2552000  3
    220    219    216    222     1  0.0000000  0.6508444  3
    220    219    239    240     1  0.0000000  0.0000000  2
    221    219    216    222     1  0.0000000  0.6508444  3
    221    219    239    240     1  0.0000000  0.0000000  2
    222    223    232    233     1  0.0000000  0.6508444  3
    222    223    232    234     1  0.0000000  0.6508444  3
    222    226    229    230     1  0.0000000  0.6508444  3
    222    226    229    231     1  0.0000000  0.6508444  3
    223    222    226    227     1  0.0000000  1.2552000  3
    223    222    226    228     1  0.0000000  1.2552000  3
    224    223    222    226     1  0.0000000  1.2552000  3
    224    223    232    236     1  0.0000000  0.6508444  3
    224    223    232    233     1  0.0000000  0.6508444  3
    224    223    232    234     1  0.0000000  0.6508444  3
    225    223    222    226     1  0.0000000  1.2552000  3
    225    223    232    236     1  0.0000000  0.6508444  3
    225    223    232    233     1  0.0000000  0.6508444  3
    225    223    232    234     1  0.0000000  0.6508444  3
    227    226    229    235     1  0.0000000  0.6508444  3
    227    226    229    230     1  0.0000000  0.6508444  3
    227    226    229    231     1  0.0000000  0.6508444  3
    228    226    229    235     1  0.0000000  0.6508444  3
    228    226    229    230     1  0.0000000  0.6508444  3
    228    226    229    231     1  0.0000000  0.6508444  3
    229    235    779    780     1  180.0000771  10.4600000  2
    230    229    235    779     1  180.0000771  0.0000000  2
    230    229    235    237     1  0.0000000  3.3472000  1
    230    229    235    237     1  0.0000000  0.0000000  2
    230    229    235    237     1  180.0000771  0.3347200  3
    231    229    235    779     1  180.0000771  0.0000000  2
    231    229    235    237     1  0.0000000  3.3472000  1
    231    229    235    237     1  0.0000000  0.0000000  2
    231    229    235    237     1  180.0000771  0.3347200  3
    232    236    852    853     1  180.0000771  10.4600000  2
    233    232    236    238     1  0.0000000  3.3472000  1
    233    232    236    238     1  0.0000000  0.0000000  2
    233    232    236    238     1  180.0000771  0.3347200  3
    233    232    236    852     1  180.0000771  0.0000000  2
    234    232    236    238     1  0.0000000  3.3472000  1
    234    232    236    238     1  0.0000000  0.0000000  2
    234    232    236    238     1  180.0000771  0.3347200  3
    234    232    236    852     1  180.0000771  0.0000000  2
    235    779    781    782     1  0.0000000  0.0000000  2
    235    779    781    784     1  0.0000000  0.0000000  2
    236    852    854    855     1  0.0000000  0.0000000  2
    236    852    854    857     1  0.0000000  0.0000000  2
    237    235    779    780     1  0.0000000  8.3680000  1
    237    235    779    780     1  180.0000771  10.4600000  2
    238    236    852    853     1  0.0000000  8.3680000  1
    238    236    852    853     1  180.0000771  10.4600000  2
    241    244    264    265     1  0.0000000  0.0000000  2
    241    247    248    249     1  0.0000000  1.2552000  3
    241    247    248    250     1  0.0000000  1.2552000  3
    241    247    251    252     1  0.0000000  1.2552000  3
    241    247    251    253     1  0.0000000  1.2552000  3
    242    241    244    264     1  0.0000000  0.6508444  3
    242    241    244    245     1  0.0000000  0.6508444  3
    242    241    244    246     1  0.0000000  0.6508444  3
    242    241    247    248     1  0.0000000  1.2552000  3
    242    241    247    251     1  0.0000000  1.2552000  3
    243    241    244    264     1  0.0000000  0.6508444  3
    243    241    244    245     1  0.0000000  0.6508444  3
    243    241    244    246     1  0.0000000  0.6508444  3
    243    241    247    248     1  0.0000000  1.2552000  3
    243    241    247    251     1  0.0000000  1.2552000  3
    245    244    241    247     1  0.0000000  0.6508444  3
    245    244    264    265     1  0.0000000  0.0000000  2
    246    244    241    247     1  0.0000000  0.6508444  3
    246    244    264    265     1  0.0000000  0.0000000  2
    247    248    257    258     1  0.0000000  0.6508444  3
    247    248    257    259     1  0.0000000  0.6508444  3
    247    251    254    255     1  0.0000000  0.6508444  3
    247    251    254    256     1  0.0000000  0.6508444  3
    248    247    251    252     1  0.0000000  1.2552000  3
    248    247    251    253     1  0.0000000  1.2552000  3
    249    248    247    251     1  0.0000000  1.2552000  3
    249    248    257    261     1  0.0000000  0.6508444  3
    249    248    257    258     1  0.0000000  0.6508444  3
    249    248    257    259     1  0.0000000  0.6508444  3
    250    248    247    251     1  0.0000000  1.2552000  3
    250    248    257    261     1  0.0000000  0.6508444  3
    250    248    257    258     1  0.0000000  0.6508444  3
    250    248    257    259     1  0.0000000  0.6508444  3
    252    251    254    260     1  0.0000000  0.6508444  3
    252    251    254    255     1  0.0000000  0.6508444  3
    252    251    254    256     1  0.0000000  0.6508444  3
    253    251    254    260     1  0.0000000  0.6508444  3
    253    251    254    255     1  0.0000000  0.6508444  3
    253    251    254    256     1  0.0000000  0.6508444  3
    254    260    925    926     1  180.0000771  10.4600000  2
    255    254    260    925     1  180.0000771  0.0000000  2
    255    254    260    262     1  0.0000000  3.3472000  1
    255    254    260    262     1  0.0000000  0.0000000  2
    255    254    260    262     1  180.0000771  0.3347200  3
    256    254    260    925     1  180.0000771  0.0000000  2
    256    254    260    262     1  0.0000000  3.3472000  1
    256    254    260    262     1  0.0000000  0.0000000  2
    256    254    260    262     1  180.0000771  0.3347200  3
    257    261    998    999     1  180.0000771  10.4600000  2
    258    257    261    263     1  0.0000000  3.3472000  1
    258    257    261    263     1  0.0000000  0.0000000  2
    258    257    261    263     1  180.0000771  0.3347200  3
    258    257    261    998     1  180.0000771  0.0000000  2
    259    257    261    263     1  0.0000000  3.3472000  1
    259    257    261    263     1  0.0000000  0.0000000  2
    259    257    261    263     1  180.0000771  0.3347200  3
    259    257    261    998     1  180.0000771  0.0000000  2
    260    925    927    928     1  0.0000000  0.0000000  2
    260    925    927    930     1  0.0000000  0.0000000  2
    261    998   1000   1001     1  0.0000000  0.0000000  2
    261    998   1000   1003     1  0.0000000  0.0000000  2
    262    260    925    926     1  0.0000000  8.3680000  1
    262    260    925    926     1  180.0000771  10.4600000  2
    263    261    998    999     1  0.0000000  8.3680000  1
    263    261    998    999     1  180.0000771  10.4600000  2
    266    269    289    290     1  0.0000000  0.0000000  2
    266    272    273    274     1  0.0000000  1.2552000  3
    266    272    273    275     1  0.0000000  1.2552000  3
    266    272    276    277     1  0.0000000  1.2552000  3
    266    272    276    278     1  0.0000000  1.2552000  3
    267    266    269    289     1  0.0000000  0.6508444  3
    267    266    269    270     1  0.0000000  0.6508444  3
    267    266    269    271     1  0.0000000  0.6508444  3
    267    266    272    273     1  0.0000000  1.2552000  3
    267    266    272    276     1  0.0000000  1.2552000  3
    268    266    269    289     1  0.0000000  0.6508444  3
    268    266    269    270     1  0.0000000  0.6508444  3
    268    266    269    271     1  0.0000000  0.6508444  3
    268    266    272    273     1  0.0000000  1.2552000  3
    268    266    272    276     1  0.0000000  1.2552000  3
    270    269    266    272     1  0.0000000  0.6508444  3
    270    269    289    290     1  0.0000000  0.0000000  2
    271    269    266    272     1  0.0000000  0.6508444  3
    271    269    289    290     1  0.0000000  0.0000000  2
    272    273    282    283     1  0.0000000  0.6508444  3
    272    273    282    284     1  0.0000000  0.6508444  3
    272    276    279    280     1  0.0000000  0.6508444  3
    272    276    279    281     1  0.0000000  0.6508444  3
    273    272    276    277     1  0.0000000  1.2552000  3
    273    272    276    278     1  0.0000000  1.2552000  3
    274    273    272    276     1  0.0000000  1.2552000  3
    274    273    282    286     1  0.0000000  0.6508444  3
    274    273    282    283     1  0.0000000  0.6508444  3
    274    273    282    284     1  0.0000000  0.6508444  3
    275    273    272    276     1  0.0000000  1.2552000  3
    275    273    282    286     1  0.0000000  0.6508444  3
    275    273    282    283     1  0.0000000  0.6508444  3
    275    273    282    284     1  0.0000000  0.6508444  3
    277    276    279    285     1  0.0000000  0.6508444  3
    277    276    279    280     1  0.0000000  0.6508444  3
    277    276    279    281     1  0.0000000  0.6508444  3
    278    276    279    285     1  0.0000000  0.6508444  3
    278    276    279    280     1  0.0000000  0.6508444  3
    278    276    279    281     1  0.0000000  0.6508444  3
    279    285   1071   1072     1  180.0000771  10.4600000  2
    280    279    285   1071     1  180.0000771  0.0000000  2
    280    279    285    287     1  0.0000000  3.3472000  1
    280    279    285    287     1  0.0000000  0.0000000  2
    280    279    285    287     1  180.0000771  0.3347200  3
    281    279    285   1071     1  180.0000771  0.0000000  2
    281    279    285    287     1  0.0000000  3.3472000  1
    281    279    285    287     1  0.0000000  0.0000000  2
    281    279    285    287     1  180.0000771  0.3347200  3
    282    286   1144   1145     1  180.0000771  10.4600000  2
    283    282    286    288     1  0.0000000  3.3472000  1
    283    282    286    288     1  0.0000000  0.0000000  2
    283    282    286    288     1  180.0000771  0.3347200  3
    283    282    286   1144     1  180.0000771  0.0000000  2
    284    282    286    288     1  0.0000000  3.3472000  1
    284    282    286    288     1  0.0000000  0.0000000  2
    284    282    286    288     1  180.0000771  0.3347200  3
    284    282    286   1144     1  180.0000771  0.0000000  2
    285   1071   1073   1074     1  0.0000000  0.0000000  2
    285   1071   1073   1076     1  0.0000000  0.0000000  2
    286   1144   1146   1147     1  0.0000000  0.0000000  2
    286   1144   1146   1149     1  0.0000000  0.0000000  2
    287    285   1071   1072     1  0.0000000  8.3680000  1
    287    285   1071   1072     1  180.0000771  10.4600000  2
    288    286   1144   1145     1  0.0000000  8.3680000  1
    288    286   1144   1145     1  180.0000771  10.4600000  2
    291    294    314    315     1  0.0000000  0.0000000  2
    291    297    298    299     1  0.0000000  1.2552000  3
    291    297    298    300     1  0.0000000  1.2552000  3
    291    297    301    302     1  0.0000000  1.2552000  3
    291    297    301    303     1  0.0000000  1.2552000  3
    292    291    294    314     1  0.0000000  0.6508444  3
    292    291    294    295     1  0.0000000  0.6508444  3
    292    291    294    296     1  0.0000000  0.6508444  3
    292    291    297    298     1  0.0000000  1.2552000  3
    292    291    297    301     1  0.0000000  1.2552000  3
    293    291    294    314     1  0.0000000  0.6508444  3
    293    291    294    295     1  0.0000000  0.6508444  3
    293    291    294    296     1  0.0000000  0.6508444  3
    293    291    297    298     1  0.0000000  1.2552000  3
    293    291    297    301     1  0.0000000  1.2552000  3
    295    294    291    297     1  0.0000000  0.6508444  3
    295    294    314    315     1  0.0000000  0.0000000  2
    296    294    291    297     1  0.0000000  0.6508444  3
    296    294    314    315     1  0.0000000  0.0000000  2
    297    298    307    308     1  0.0000000  0.6508444  3
    297    298    307    309     1  0.0000000  0.6508444  3
    297    301    304    305     1  0.0000000  0.6508444  3
    297    301    304    306     1  0.0000000  0.6508444  3
    298    297    301    302     1  0.0000000  1.2552000  3
    298    297    301    303     1  0.0000000  1.2552000  3
    299    298    297    301     1  0.0000000  1.2552000  3
    299    298    307    311     1  0.0000000  0.6508444  3
    299    298    307    308     1  0.0000000  0.6508444  3
    299    298    307    309     1  0.0000000  0.6508444  3
    300    298    297    301     1  0.0000000  1.2552000  3
    300    298    307    311     1  0.0000000  0.6508444  3
    300    298    307    308     1  0.0000000  0.6508444  3
    300    298    307    309     1  0.0000000  0.6508444  3
    302    301    304    310     1  0.0000000  0.6508444  3
    302    301    304    305     1  0.0000000  0.6508444  3
    302    301    304    306     1  0.0000000  0.6508444  3
    303    301    304    310     1  0.0000000  0.6508444  3
    303    301    304    305     1  0.0000000  0.6508444  3
    303    301    304    306     1  0.0000000  0.6508444  3
    304    310   1217   1218     1  180.0000771  10.4600000  2
    305    304    310   1217     1  180.0000771  0.0000000  2
    305    304    310    312     1  0.0000000  3.3472000  1
    305    304    310    312     1  0.0000000  0.0000000  2
    305    304    310    312     1  180.0000771  0.3347200  3
    306    304    310   1217     1  180.0000771  0.0000000  2
    306    304    310    312     1  0.0000000  3.3472000  1
    306    304    310    312     1  0.0000000  0.0000000  2
    306    304    310    312     1  180.0000771  0.3347200  3
    307    311   1290   1291     1  180.0000771  10.4600000  2
    308    307    311    313     1  0.0000000  3.3472000  1
    308    307    311    313     1  0.0000000  0.0000000  2
    308    307    311    313     1  180.0000771  0.3347200  3
    308    307    311   1290     1  180.0000771  0.0000000  2
    309    307    311    313     1  0.0000000  3.3472000  1
    309    307    311    313     1  0.0000000  0.0000000  2
    309    307    311    313     1  180.0000771  0.3347200  3
    309    307    311   1290     1  180.0000771  0.0000000  2
    310   1217   1219   1220     1  0.0000000  0.0000000  2
    310   1217   1219   1222     1  0.0000000  0.0000000  2
    311   1290   1292   1293     1  0.0000000  0.0000000  2
    311   1290   1292   1295     1  0.0000000  0.0000000  2
    312    310   1217   1218     1  0.0000000  8.3680000  1
    312    310   1217   1218     1  180.0000771  10.4600000  2
    313    311   1290   1291     1  0.0000000  8.3680000  1
    313    311   1290   1291     1  180.0000771  10.4600000  2
    316    319    339    340     1  0.0000000  0.0000000  2
    316    322    323    324     1  0.0000000  1.2552000  3
    316    322    323    325     1  0.0000000  1.2552000  3
    316    322    326    327     1  0.0000000  1.2552000  3
    316    322    326    328     1  0.0000000  1.2552000  3
    317    316    319    339     1  0.0000000  0.6508444  3
    317    316    319    320     1  0.0000000  0.6508444  3
    317    316    319    321     1  0.0000000  0.6508444  3
    317    316    322    323     1  0.0000000  1.2552000  3
    317    316    322    326     1  0.0000000  1.2552000  3
    318    316    319    339     1  0.0000000  0.6508444  3
    318    316    319    320     1  0.0000000  0.6508444  3
    318    316    319    321     1  0.0000000  0.6508444  3
    318    316    322    323     1  0.0000000  1.2552000  3
    318    316    322    326     1  0.0000000  1.2552000  3
    320    319    316    322     1  0.0000000  0.6508444  3
    320    319    339    340     1  0.0000000  0.0000000  2
    321    319    316    322     1  0.0000000  0.6508444  3
    321    319    339    340     1  0.0000000  0.0000000  2
    322    323    332    333     1  0.0000000  0.6508444  3
    322    323    332    334     1  0.0000000  0.6508444  3
    322    326    329    330     1  0.0000000  0.6508444  3
    322    326    329    331     1  0.0000000  0.6508444  3
    323    322    326    327     1  0.0000000  1.2552000  3
    323    322    326    328     1  0.0000000  1.2552000  3
    324    323    322    326     1  0.0000000  1.2552000  3
    324    323    332    336     1  0.0000000  0.6508444  3
    324    323    332    333     1  0.0000000  0.6508444  3
    324    323    332    334     1  0.0000000  0.6508444  3
    325    323    322    326     1  0.0000000  1.2552000  3
    325    323    332    336     1  0.0000000  0.6508444  3
    325    323    332    333     1  0.0000000  0.6508444  3
    325    323    332    334     1  0.0000000  0.6508444  3
    327    326    329    335     1  0.0000000  0.6508444  3
    327    326    329    330     1  0.0000000  0.6508444  3
    327    326    329    331     1  0.0000000  0.6508444  3
    328    326    329    335     1  0.0000000  0.6508444  3
    328    326    329    330     1  0.0000000  0.6508444  3
    328    326    329    331     1  0.0000000  0.6508444  3
    329    335   1363   1364     1  180.0000771  10.4600000  2
    330    329    335   1363     1  180.0000771  0.0000000  2
    330    329    335    337     1  0.0000000  3.3472000  1
    330    329    335    337     1  0.0000000  0.0000000  2
    330    329    335    337     1  180.0000771  0.3347200  3
    331    329    335   1363     1  180.0000771  0.0000000  2
    331    329    335    337     1  0.0000000  3.3472000  1
    331    329    335    337     1  0.0000000  0.0000000  2
    331    329    335    337     1  180.0000771  0.3347200  3
    332    336   1436   1437     1  180.0000771  10.4600000  2
    333    332    336   1436     1  180.0000771  0.0000000  2
    333    332    336    338     1  0.0000000  3.3472000  1
    333    332    336    338     1  0.0000000  0.0000000  2
    333    332    336    338     1  180.0000771  0.3347200  3
    334    332    336   1436     1  180.0000771  0.0000000  2
    334    332    336    338     1  0.0000000  3.3472000  1
    334    332    336    338     1  0.0000000  0.0000000  2
    334    332    336    338     1  180.0000771  0.3347200  3
    335   1363   1365   1366     1  0.0000000  0.0000000  2
    335   1363   1365   1368     1  0.0000000  0.0000000  2
    336   1436   1438   1439     1  0.0000000  0.0000000  2
    336   1436   1438   1441     1  0.0000000  0.0000000  2
    337    335   1363   1364     1  0.0000000  8.3680000  1
    337    335   1363   1364     1  180.0000771  10.4600000  2
    338    336   1436   1437     1  0.0000000  8.3680000  1
    338    336   1436   1437     1  180.0000771  10.4600000  2
    341    343    345    347     1  0.0000000  0.6508444  3
    341    343    345    348     1  0.0000000  0.6508444  3
    342    341    343    345     1  0.0000000  0.0000000  2
    342    341    343    344     1  0.0000000  0.0000000  2
    342    341    343    346     1  0.0000000  0.0000000  2
    344    343    345    349     1  0.0000000  0.6508444  3
    344    343    345    347     1  0.0000000  0.6508444  3
    344    343    345    348     1  0.0000000  0.6508444  3
    345    349    350    359     1  0.0000000  1.2552000  3
    345    349    350    360     1  0.0000000  1.2552000  3
    345    349    351    352     1  0.0000000  1.2552000  3
    345    349    351    354     1  0.0000000  1.2552000  3
    346    343    345    349     1  0.0000000  0.6508444  3
    346    343    345    347     1  0.0000000  0.6508444  3
    346    343    345    348     1  0.0000000  0.6508444  3
    347    345    349    350     1  0.0000000  1.2552000  3
    347    345    349    351     1  0.0000000  1.2552000  3
    348    345    349    350     1  0.0000000  1.2552000  3
    348    345    349    351     1  0.0000000  1.2552000  3
    349    350    361    362     1  0.0000000  0.6508444  3
    349    350    361    363     1  0.0000000  0.6508444  3
    349    351    353    355     1  0.0000000  0.6508444  3
    349    351    353    356     1  0.0000000  0.6508444  3
    350    349    351    352     1  0.0000000  1.2552000  3
    350    349    351    354     1  0.0000000  1.2552000  3
    351    349    350    359     1  0.0000000  1.2552000  3
    351    349    350    360     1  0.0000000  1.2552000  3
    352    351    353    357     1  0.0000000  0.6508444  3
    352    351    353    355     1  0.0000000  0.6508444  3
    352    351    353    356     1  0.0000000  0.6508444  3
    353    357    389    379     1  180.0000771  6.0668000  2
    353    357    389    379     1  180.0000771  1.4644000  4
    354    351    353    357     1  0.0000000  0.6508444  3
    354    351    353    355     1  0.0000000  0.6508444  3
    354    351    353    356     1  0.0000000  0.6508444  3
    355    353    357    358     1  0.0000000  3.3472000  1
    355    353    357    358     1  0.0000000  0.0000000  2
    355    353    357    358     1  180.0000771  0.3347200  3
    355    353    357    389     1  180.0000771  0.0000000  2
    356    353    357    358     1  0.0000000  3.3472000  1
    356    353    357    358     1  0.0000000  0.0000000  2
    356    353    357    358     1  180.0000771  0.3347200  3
    356    353    357    389     1  180.0000771  0.0000000  2
    357    389    370    372     1  0.0000000  1.2552000  3
    358    357    389    379     1  180.0000771  6.0668000  2
    358    357    389    379     1  180.0000771  1.4644000  4
    359    350    361    364     1  0.0000000  0.6508444  3
    359    350    361    362     1  0.0000000  0.6508444  3
    359    350    361    363     1  0.0000000  0.6508444  3
    360    350    361    364     1  0.0000000  0.6508444  3
    360    350    361    362     1  0.0000000  0.6508444  3
    360    350    361    363     1  0.0000000  0.6508444  3
    361    364    413    403     1  180.0000771  6.0668000  2
    361    364    413    403     1  180.0000771  1.4644000  4
    362    361    364    365     1  0.0000000  3.3472000  1
    362    361    364    365     1  0.0000000  0.0000000  2
    362    361    364    365     1  180.0000771  0.3347200  3
    362    361    364    413     1  180.0000771  0.0000000  2
    363    361    364    365     1  0.0000000  3.3472000  1
    363    361    364    365     1  0.0000000  0.0000000  2
    363    361    364    365     1  180.0000771  0.3347200  3
    363    361    364    413     1  180.0000771  0.0000000  2
    364    413    394    396     1  0.0000000  1.2552000  3
    365    364    413    403     1  180.0000771  6.0668000  2
    365    364    413    403     1  180.0000771  1.4644000  4
    366    367    369    373     1  0.0000000  0.6508444  3
    366    367    387    388     1  0.0000000  1.0460000  1
    366    367    387    388     1  0.0000000  0.6694400  3
    366    377    382    383     1  0.0000000  1.0460000  1
    366    377    382    383     1  0.0000000  0.6694400  3
    366    384    371    374     1  0.0000000  1.6038667  3
    367    366    377    380     1  0.0000000  0.6508444  3
    367    366    377    381     1  0.0000000  0.6508444  3
    367    369    370    372     1  0.0000000  0.6508444  3
    367    369    376    378     1  0.0000000  1.0460000  1
    367    369    376    378     1  0.0000000  0.6694400  3
    368    366    367    369     1  0.0000000  0.6508444  3
    368    366    367    387     1  0.0000000  1.0460000  1
    368    366    367    387     1  0.0000000  0.0000000  3
    368    366    367    386     1  0.0000000  0.6508444  3
    368    366    377    382     1  0.0000000  1.0460000  1
    368    366    377    382     1  0.0000000  0.0000000  3
    368    366    377    380     1  0.0000000  0.6508444  3
    368    366    377    381     1  0.0000000  0.6508444  3
    368    366    384    371     1  0.0000000  1.6038667  3
    369    367    387    388     1  0.0000000  1.0460000  1
    369    367    387    388     1  0.0000000  0.6694400  3
    369    370    371    374     1  0.0000000  0.6508444  3
    369    370    389    379     1  0.0000000  1.2552000  3
    370    369    367    386     1  0.0000000  0.6508444  3
    370    369    376    378     1  0.0000000  1.0460000  1
    370    369    376    378     1  0.0000000  0.6694400  3
    370    371    375    385     1  0.0000000  1.0460000  1
    370    371    375    385     1  0.0000000  0.6694400  3
    371    370    369    373     1  0.0000000  0.6508444  3
    371    370    389    379     1  0.0000000  1.2552000  3
    372    370    369    376     1  0.0000000  1.0460000  1
    372    370    369    376     1  0.0000000  0.0000000  3
    372    370    369    373     1  0.0000000  0.6508444  3
    372    370    371    375     1  0.0000000  1.0460000  1
    372    370    371    375     1  0.0000000  0.0000000  3
    372    370    371    384     1  0.0000000  1.0460000  1
    372    370    371    384     1  0.0000000  0.0000000  3
    372    370    371    374     1  0.0000000  0.6508444  3
    372    370    389    379     1  0.0000000  1.2552000  3
    373    369    367    387     1  0.0000000  1.0460000  1
    373    369    367    387     1  0.0000000  0.0000000  3
    373    369    367    386     1  0.0000000  0.6508444  3
    373    369    370    389     1  0.0000000  0.6508444  3
    373    369    376    378     1  0.0000000  0.6973333  3
    374    371    370    389     1  0.0000000  0.6508444  3
    374    371    375    385     1  0.0000000  0.6973333  3
    376    369    367    386     1  0.0000000  1.0460000  1
    376    369    367    386     1  0.0000000  0.0000000  3
    377    366    367    386     1  0.0000000  0.6508444  3
    380    377    366    384     1  0.0000000  1.0460000  1
    380    377    366    384     1  0.0000000  0.0000000  3
    380    377    382    383     1  0.0000000  0.6973333  3
    381    377    366    384     1  0.0000000  1.0460000  1
    381    377    366    384     1  0.0000000  0.0000000  3
    381    377    382    383     1  0.0000000  0.6973333  3
    384    366    367    386     1  0.0000000  1.0460000  1
    384    366    367    386     1  0.0000000  0.0000000  3
    384    371    375    385     1  0.0000000  0.6973333  3
    386    367    387    388     1  0.0000000  0.6973333  3
    390    391    393    397     1  0.0000000  0.6508444  3
    390    391    411    412     1  0.0000000  1.0460000  1
    390    391    411    412     1  0.0000000  0.6694400  3
    390    401    406    407     1  0.0000000  1.0460000  1
    390    401    406    407     1  0.0000000  0.6694400  3
    390    408    395    398     1  0.0000000  1.6038667  3
    391    390    401    404     1  0.0000000  0.6508444  3
    391    390    401    405     1  0.0000000  0.6508444  3
    391    393    394    396     1  0.0000000  0.6508444  3
    391    393    400    402     1  0.0000000  1.0460000  1
    391    393    400    402     1  0.0000000  0.6694400  3
    392    390    391    393     1  0.0000000  0.6508444  3
    392    390    391    411     1  0.0000000  1.0460000  1
    392    390    391    411     1  0.0000000  0.0000000  3
    392    390    391    410     1  0.0000000  0.6508444  3
    392    390    401    406     1  0.0000000  1.0460000  1
    392    390    401    406     1  0.0000000  0.0000000  3
    392    390    401    404     1  0.0000000  0.6508444  3
    392    390    401    405     1  0.0000000  0.6508444  3
    392    390    408    395     1  0.0000000  1.6038667  3
    393    391    411    412     1  0.0000000  1.0460000  1
    393    391    411    412     1  0.0000000  0.6694400  3
    393    394    395    398     1  0.0000000  0.6508444  3
    393    394    413    403     1  0.0000000  1.2552000  3
    394    393    391    410     1  0.0000000  0.6508444  3
    394    393    400    402     1  0.0000000  1.0460000  1
    394    393    400    402     1  0.0000000  0.6694400  3
    394    395    399    409     1  0.0000000  1.0460000  1
    394    395    399    409     1  0.0000000  0.6694400  3
    395    394    393    397     1  0.0000000  0.6508444  3
    395    394    413    403     1  0.0000000  1.2552000  3
    396    394    393    400     1  0.0000000  1.0460000  1
    396    394    393    400     1  0.0000000  0.0000000  3
    396    394    393    397     1  0.0000000  0.6508444  3
    396    394    395    399     1  0.0000000  1.0460000  1
    396    394    395    399     1  0.0000000  0.0000000  3
    396    394    395    408     1  0.0000000  1.0460000  1
    396    394    395    408     1  0.0000000  0.0000000  3
    396    394    395    398     1  0.0000000  0.6508444  3
    396    394    413    403     1  0.0000000  1.2552000  3
    397    393    391    411     1  0.0000000  1.0460000  1
    397    393    391    411     1  0.0000000  0.0000000  3
    397    393    391    410     1  0.0000000  0.6508444  3
    397    393    394    413     1  0.0000000  0.6508444  3
    397    393    400    402     1  0.0000000  0.6973333  3
    398    395    394    413     1  0.0000000  0.6508444  3
    398    395    399    409     1  0.0000000  0.6973333  3
    400    393    391    410     1  0.0000000  1.0460000  1
    400    393    391    410     1  0.0000000  0.0000000  3
    401    390    391    410     1  0.0000000  0.6508444  3
    404    401    390    408     1  0.0000000  1.0460000  1
    404    401    390    408     1  0.0000000  0.0000000  3
    404    401    406    407     1  0.0000000  0.6973333  3
    405    401    390    408     1  0.0000000  1.0460000  1
    405    401    390    408     1  0.0000000  0.0000000  3
    405    401    406    407     1  0.0000000  0.6973333  3
    408    390    391    410     1  0.0000000  1.0460000  1
    408    390    391    410     1  0.0000000  0.0000000  3
    408    395    399    409     1  0.0000000  0.6973333  3
    410    391    411    412     1  0.0000000  0.6973333  3
    414    416    418    420     1  0.0000000  0.6508444  3
    414    416    418    421     1  0.0000000  0.6508444  3
    415    414    416    418     1  0.0000000  0.0000000  2
    415    414    416    417     1  0.0000000  0.0000000  2
    415    414    416    419     1  0.0000000  0.0000000  2
    417    416    418    422     1  0.0000000  0.6508444  3
    417    416    418    420     1  0.0000000  0.6508444  3
    417    416    418    421     1  0.0000000  0.6508444  3
    418    422    423    432     1  0.0000000  1.2552000  3
    418    422    423    433     1  0.0000000  1.2552000  3
    418    422    424    425     1  0.0000000  1.2552000  3
    418    422    424    427     1  0.0000000  1.2552000  3
    419    416    418    422     1  0.0000000  0.6508444  3
    419    416    418    420     1  0.0000000  0.6508444  3
    419    416    418    421     1  0.0000000  0.6508444  3
    420    418    422    423     1  0.0000000  1.2552000  3
    420    418    422    424     1  0.0000000  1.2552000  3
    421    418    422    423     1  0.0000000  1.2552000  3
    421    418    422    424     1  0.0000000  1.2552000  3
    422    423    434    435     1  0.0000000  0.6508444  3
    422    423    434    436     1  0.0000000  0.6508444  3
    422    424    426    428     1  0.0000000  0.6508444  3
    422    424    426    429     1  0.0000000  0.6508444  3
    423    422    424    425     1  0.0000000  1.2552000  3
    423    422    424    427     1  0.0000000  1.2552000  3
    424    422    423    432     1  0.0000000  1.2552000  3
    424    422    423    433     1  0.0000000  1.2552000  3
    425    424    426    430     1  0.0000000  0.6508444  3
    425    424    426    428     1  0.0000000  0.6508444  3
    425    424    426    429     1  0.0000000  0.6508444  3
    426    430    462    452     1  180.0000771  6.0668000  2
    426    430    462    452     1  180.0000771  1.4644000  4
    427    424    426    430     1  0.0000000  0.6508444  3
    427    424    426    428     1  0.0000000  0.6508444  3
    427    424    426    429     1  0.0000000  0.6508444  3
    428    426    430    431     1  0.0000000  3.3472000  1
    428    426    430    431     1  0.0000000  0.0000000  2
    428    426    430    431     1  180.0000771  0.3347200  3
    428    426    430    462     1  180.0000771  0.0000000  2
    429    426    430    431     1  0.0000000  3.3472000  1
    429    426    430    431     1  0.0000000  0.0000000  2
    429    426    430    431     1  180.0000771  0.3347200  3
    429    426    430    462     1  180.0000771  0.0000000  2
    430    462    443    445     1  0.0000000  1.2552000  3
    431    430    462    452     1  180.0000771  6.0668000  2
    431    430    462    452     1  180.0000771  1.4644000  4
    432    423    434    437     1  0.0000000  0.6508444  3
    432    423    434    435     1  0.0000000  0.6508444  3
    432    423    434    436     1  0.0000000  0.6508444  3
    433    423    434    437     1  0.0000000  0.6508444  3
    433    423    434    435     1  0.0000000  0.6508444  3
    433    423    434    436     1  0.0000000  0.6508444  3
    434    437    486    476     1  180.0000771  6.0668000  2
    434    437    486    476     1  180.0000771  1.4644000  4
    435    434    437    438     1  0.0000000  3.3472000  1
    435    434    437    438     1  0.0000000  0.0000000  2
    435    434    437    438     1  180.0000771  0.3347200  3
    435    434    437    486     1  180.0000771  0.0000000  2
    436    434    437    438     1  0.0000000  3.3472000  1
    436    434    437    438     1  0.0000000  0.0000000  2
    436    434    437    438     1  180.0000771  0.3347200  3
    436    434    437    486     1  180.0000771  0.0000000  2
    437    486    467    469     1  0.0000000  1.2552000  3
    438    437    486    476     1  180.0000771  6.0668000  2
    438    437    486    476     1  180.0000771  1.4644000  4
    439    440    442    446     1  0.0000000  0.6508444  3
    439    440    460    461     1  0.0000000  1.0460000  1
    439    440    460    461     1  0.0000000  0.6694400  3
    439    450    455    456     1  0.0000000  1.0460000  1
    439    450    455    456     1  0.0000000  0.6694400  3
    439    457    444    447     1  0.0000000  1.6038667  3
    440    442    443    445     1  0.0000000  0.6508444  3
    440    442    449    451     1  0.0000000  1.0460000  1
    440    442    449    451     1  0.0000000  0.6694400  3
    440    439    450    453     1  0.0000000  0.6508444  3
    440    439    450    454     1  0.0000000  0.6508444  3
    441    439    440    442     1  0.0000000  0.6508444  3
    441    439    440    460     1  0.0000000  1.0460000  1
    441    439    440    460     1  0.0000000  0.0000000  3
    441    439    440    459     1  0.0000000  0.6508444  3
    441    439    450    455     1  0.0000000  1.0460000  1
    441    439    450    455     1  0.0000000  0.0000000  3
    441    439    450    453     1  0.0000000  0.6508444  3
    441    439    450    454     1  0.0000000  0.6508444  3
    441    439    457    444     1  0.0000000  1.6038667  3
    442    443    444    447     1  0.0000000  0.6508444  3
    442    443    462    452     1  0.0000000  1.2552000  3
    442    440    460    461     1  0.0000000  1.0460000  1
    442    440    460    461     1  0.0000000  0.6694400  3
    443    444    448    458     1  0.0000000  1.0460000  1
    443    444    448    458     1  0.0000000  0.6694400  3
    443    442    449    451     1  0.0000000  1.0460000  1
    443    442    449    451     1  0.0000000  0.6694400  3
    443    442    440    459     1  0.0000000  0.6508444  3
    444    443    462    452     1  0.0000000  1.2552000  3
    444    443    442    446     1  0.0000000  0.6508444  3
    445    443    444    448     1  0.0000000  1.0460000  1
    445    443    444    448     1  0.0000000  0.0000000  3
    445    443    444    457     1  0.0000000  1.0460000  1
    445    443    444    457     1  0.0000000  0.0000000  3
    445    443    444    447     1  0.0000000  0.6508444  3
    445    443    462    452     1  0.0000000  1.2552000  3
    445    443    442    449     1  0.0000000  1.0460000  1
    445    443    442    449     1  0.0000000  0.0000000  3
    445    443    442    446     1  0.0000000  0.6508444  3
    446    442    443    462     1  0.0000000  0.6508444  3
    446    442    449    451     1  0.0000000  0.6973333  3
    446    442    440    460     1  0.0000000  1.0460000  1
    446    442    440    460     1  0.0000000  0.0000000  3
    446    442    440    459     1  0.0000000  0.6508444  3
    447    444    448    458     1  0.0000000  0.6973333  3
    447    444    443    462     1  0.0000000  0.6508444  3
    449    442    440    459     1  0.0000000  1.0460000  1
    449    442    440    459     1  0.0000000  0.0000000  3
    450    439    440    459     1  0.0000000  0.6508444  3
    453    450    455    456     1  0.0000000  0.6973333  3
    453    450    439    457     1  0.0000000  1.0460000  1
    453    450    439    457     1  0.0000000  0.0000000  3
    454    450    455    456     1  0.0000000  0.6973333  3
    454    450    439    457     1  0.0000000  1.0460000  1
    454    450    439    457     1  0.0000000  0.0000000  3
    457    444    448    458     1  0.0000000  0.6973333  3
    457    439    440    459     1  0.0000000  1.0460000  1
    457    439    440    459     1  0.0000000  0.0000000  3
    459    440    460    461     1  0.0000000  0.6973333  3
    463    464    466    470     1  0.0000000  0.6508444  3
    463    464    484    485     1  0.0000000  1.0460000  1
    463    464    484    485     1  0.0000000  0.6694400  3
    463    474    479    480     1  0.0000000  1.0460000  1
    463    474    479    480     1  0.0000000  0.6694400  3
    463    481    468    471     1  0.0000000  1.6038667  3
    464    466    467    469     1  0.0000000  0.6508444  3
    464    466    473    475     1  0.0000000  1.0460000  1
    464    466    473    475     1  0.0000000  0.6694400  3
    464    463    474    477     1  0.0000000  0.6508444  3
    464    463    474    478     1  0.0000000  0.6508444  3
    465    463    464    466     1  0.0000000  0.6508444  3
    465    463    464    484     1  0.0000000  1.0460000  1
    465    463    464    484     1  0.0000000  0.0000000  3
    465    463    464    483     1  0.0000000  0.6508444  3
    465    463    474    479     1  0.0000000  1.0460000  1
    465    463    474    479     1  0.0000000  0.0000000  3
    465    463    474    477     1  0.0000000  0.6508444  3
    465    463    474    478     1  0.0000000  0.6508444  3
    465    463    481    468     1  0.0000000  1.6038667  3
    466    467    468    471     1  0.0000000  0.6508444  3
    466    467    486    476     1  0.0000000  1.2552000  3
    466    464    484    485     1  0.0000000  1.0460000  1
    466    464    484    485     1  0.0000000  0.6694400  3
    467    468    472    482     1  0.0000000  1.0460000  1
    467    468    472    482     1  0.0000000  0.6694400  3
    467    466    473    475     1  0.0000000  1.0460000  1
    467    466    473    475     1  0.0000000  0.6694400  3
    467    466    464    483     1  0.0000000  0.6508444  3
    468    467    486    476     1  0.0000000  1.2552000  3
    468    467    466    470     1  0.0000000  0.6508444  3
    469    467    468    472     1  0.0000000  1.0460000  1
    469    467    468    472     1  0.0000000  0.0000000  3
    469    467    468    481     1  0.0000000  1.0460000  1
    469    467    468    481     1  0.0000000  0.0000000  3
    469    467    468    471     1  0.0000000  0.6508444  3
    469    467    486    476     1  0.0000000  1.2552000  3
    469    467    466    473     1  0.0000000  1.0460000  1
    469    467    466    473     1  0.0000000  0.0000000  3
    469    467    466    470     1  0.0000000  0.6508444  3
    470    466    467    486     1  0.0000000  0.6508444  3
    470    466    473    475     1  0.0000000  0.6973333  3
    470    466    464    484     1  0.0000000  1.0460000  1
    470    466    464    484     1  0.0000000  0.0000000  3
    470    466    464    483     1  0.0000000  0.6508444  3
    471    468    472    482     1  0.0000000  0.6973333  3
    471    468    467    486     1  0.0000000  0.6508444  3
    473    466    464    483     1  0.0000000  1.0460000  1
    473    466    464    483     1  0.0000000  0.0000000  3
    474    463    464    483     1  0.0000000  0.6508444  3
    477    474    479    480     1  0.0000000  0.6973333  3
    477    474    463    481     1  0.0000000  1.0460000  1
    477    474    463    481     1  0.0000000  0.0000000  3
    478    474    479    480     1  0.0000000  0.6973333  3
    478    474    463    481     1  0.0000000  1.0460000  1
    478    474    463    481     1  0.0000000  0.0000000  3
    481    468    472    482     1  0.0000000  0.6973333  3
    481    463    464    483     1  0.0000000  1.0460000  1
    481    463    464    483     1  0.0000000  0.0000000  3
    483    464    484    485     1  0.0000000  0.6973333  3
    487    489    491    493     1  0.0000000  0.6508444  3
    487    489    491    494     1  0.0000000  0.6508444  3
    488    487    489    491     1  0.0000000  0.0000000  2
    488    487    489    490     1  0.0000000  0.0000000  2
    488    487    489    492     1  0.0000000  0.0000000  2
    490    489    491    495     1  0.0000000  0.6508444  3
    490    489    491    493     1  0.0000000  0.6508444  3
    490    489    491    494     1  0.0000000  0.6508444  3
    491    495    496    505     1  0.0000000  1.2552000  3
    491    495    496    506     1  0.0000000  1.2552000  3
    491    495    497    498     1  0.0000000  1.2552000  3
    491    495    497    500     1  0.0000000  1.2552000  3
    492    489    491    495     1  0.0000000  0.6508444  3
    492    489    491    493     1  0.0000000  0.6508444  3
    492    489    491    494     1  0.0000000  0.6508444  3
    493    491    495    496     1  0.0000000  1.2552000  3
    493    491    495    497     1  0.0000000  1.2552000  3
    494    491    495    496     1  0.0000000  1.2552000  3
    494    491    495    497     1  0.0000000  1.2552000  3
    495    496    507    508     1  0.0000000  0.6508444  3
    495    496    507    509     1  0.0000000  0.6508444  3
    495    497    499    501     1  0.0000000  0.6508444  3
    495    497    499    502     1  0.0000000  0.6508444  3
    496    495    497    498     1  0.0000000  1.2552000  3
    496    495    497    500     1  0.0000000  1.2552000  3
    497    495    496    505     1  0.0000000  1.2552000  3
    497    495    496    506     1  0.0000000  1.2552000  3
    498    497    499    503     1  0.0000000  0.6508444  3
    498    497    499    501     1  0.0000000  0.6508444  3
    498    497    499    502     1  0.0000000  0.6508444  3
    499    503    535    525     1  180.0000771  6.0668000  2
    499    503    535    525     1  180.0000771  1.4644000  4
    500    497    499    503     1  0.0000000  0.6508444  3
    500    497    499    501     1  0.0000000  0.6508444  3
    500    497    499    502     1  0.0000000  0.6508444  3
    501    499    503    504     1  0.0000000  3.3472000  1
    501    499    503    504     1  0.0000000  0.0000000  2
    501    499    503    504     1  180.0000771  0.3347200  3
    501    499    503    535     1  180.0000771  0.0000000  2
    502    499    503    504     1  0.0000000  3.3472000  1
    502    499    503    504     1  0.0000000  0.0000000  2
    502    499    503    504     1  180.0000771  0.3347200  3
    502    499    503    535     1  180.0000771  0.0000000  2
    503    535    516    518     1  0.0000000  1.2552000  3
    504    503    535    525     1  180.0000771  6.0668000  2
    504    503    535    525     1  180.0000771  1.4644000  4
    505    496    507    510     1  0.0000000  0.6508444  3
    505    496    507    508     1  0.0000000  0.6508444  3
    505    496    507    509     1  0.0000000  0.6508444  3
    506    496    507    510     1  0.0000000  0.6508444  3
    506    496    507    508     1  0.0000000  0.6508444  3
    506    496    507    509     1  0.0000000  0.6508444  3
    507    510    559    549     1  180.0000771  6.0668000  2
    507    510    559    549     1  180.0000771  1.4644000  4
    508    507    510    511     1  0.0000000  3.3472000  1
    508    507    510    511     1  0.0000000  0.0000000  2
    508    507    510    511     1  180.0000771  0.3347200  3
    508    507    510    559     1  180.0000771  0.0000000  2
    509    507    510    511     1  0.0000000  3.3472000  1
    509    507    510    511     1  0.0000000  0.0000000  2
    509    507    510    511     1  180.0000771  0.3347200  3
    509    507    510    559     1  180.0000771  0.0000000  2
    510    559    540    542     1  0.0000000  1.2552000  3
    511    510    559    549     1  180.0000771  6.0668000  2
    511    510    559    549     1  180.0000771  1.4644000  4
    512    513    515    519     1  0.0000000  0.6508444  3
    512    513    533    534     1  0.0000000  1.0460000  1
    512    513    533    534     1  0.0000000  0.6694400  3
    512    523    528    529     1  0.0000000  1.0460000  1
    512    523    528    529     1  0.0000000  0.6694400  3
    512    530    517    520     1  0.0000000  1.6038667  3
    513    512    523    526     1  0.0000000  0.6508444  3
    513    512    523    527     1  0.0000000  0.6508444  3
    513    515    516    518     1  0.0000000  0.6508444  3
    513    515    522    524     1  0.0000000  1.0460000  1
    513    515    522    524     1  0.0000000  0.6694400  3
    514    512    513    515     1  0.0000000  0.6508444  3
    514    512    513    533     1  0.0000000  1.0460000  1
    514    512    513    533     1  0.0000000  0.0000000  3
    514    512    513    532     1  0.0000000  0.6508444  3
    514    512    523    528     1  0.0000000  1.0460000  1
    514    512    523    528     1  0.0000000  0.0000000  3
    514    512    523    526     1  0.0000000  0.6508444  3
    514    512    523    527     1  0.0000000  0.6508444  3
    514    512    530    517     1  0.0000000  1.6038667  3
    515    513    533    534     1  0.0000000  1.0460000  1
    515    513    533    534     1  0.0000000  0.6694400  3
    515    516    517    520     1  0.0000000  0.6508444  3
    515    516    535    525     1  0.0000000  1.2552000  3
    516    515    513    532     1  0.0000000  0.6508444  3
    516    515    522    524     1  0.0000000  1.0460000  1
    516    515    522    524     1  0.0000000  0.6694400  3
    516    517    521    531     1  0.0000000  1.0460000  1
    516    517    521    531     1  0.0000000  0.6694400  3
    517    516    515    519     1  0.0000000  0.6508444  3
    517    516    535    525     1  0.0000000  1.2552000  3
    518    516    515    522     1  0.0000000  1.0460000  1
    518    516    515    522     1  0.0000000  0.0000000  3
    518    516    515    519     1  0.0000000  0.6508444  3
    518    516    517    521     1  0.0000000  1.0460000  1
    518    516    517    521     1  0.0000000  0.0000000  3
    518    516    517    530     1  0.0000000  1.0460000  1
    518    516    517    530     1  0.0000000  0.0000000  3
    518    516    517    520     1  0.0000000  0.6508444  3
    518    516    535    525     1  0.0000000  1.2552000  3
    519    515    513    533     1  0.0000000  1.0460000  1
    519    515    513    533     1  0.0000000  0.0000000  3
    519    515    513    532     1  0.0000000  0.6508444  3
    519    515    516    535     1  0.0000000  0.6508444  3
    519    515    522    524     1  0.0000000  0.6973333  3
    520    517    516    535     1  0.0000000  0.6508444  3
    520    517    521    531     1  0.0000000  0.6973333  3
    522    515    513    532     1  0.0000000  1.0460000  1
    522    515    513    532     1  0.0000000  0.0000000  3
    523    512    513    532     1  0.0000000  0.6508444  3
    526    523    512    530     1  0.0000000  1.0460000  1
    526    523    512    530     1  0.0000000  0.0000000  3
    526    523    528    529     1  0.0000000  0.6973333  3
    527    523    512    530     1  0.0000000  1.0460000  1
    527    523    512    530     1  0.0000000  0.0000000  3
    527    523    528    529     1  0.0000000  0.6973333  3
    530    512    513    532     1  0.0000000  1.0460000  1
    530    512    513    532     1  0.0000000  0.0000000  3
    530    517    521    531     1  0.0000000  0.6973333  3
    532    513    533    534     1  0.0000000  0.6973333  3
    536    537    539    543     1  0.0000000  0.6508444  3
    536    537    557    558     1  0.0000000  1.0460000  1
    536    537    557    558     1  0.0000000  0.6694400  3
    536    547    552    553     1  0.0000000  1.0460000  1
    536    547    552    553     1  0.0000000  0.6694400  3
    536    554    541    544     1  0.0000000  1.6038667  3
    537    536    547    550     1  0.0000000  0.6508444  3
    537    536    547    551     1  0.0000000  0.6508444  3
    537    539    540    542     1  0.0000000  0.6508444  3
    537    539    546    548     1  0.0000000  1.0460000  1
    537    539    546    548     1  0.0000000  0.6694400  3
    538    536    537    539     1  0.0000000  0.6508444  3
    538    536    537    557     1  0.0000000  1.0460000  1
    538    536    537    557     1  0.0000000  0.0000000  3
    538    536    537    556     1  0.0000000  0.6508444  3
    538    536    547    552     1  0.0000000  1.0460000  1
    538    536    547    552     1  0.0000000  0.0000000  3
    538    536    547    550     1  0.0000000  0.6508444  3
    538    536    547    551     1  0.0000000  0.6508444  3
    538    536    554    541     1  0.0000000  1.6038667  3
    539    537    557    558     1  0.0000000  1.0460000  1
    539    537    557    558     1  0.0000000  0.6694400  3
    539    540    541    544     1  0.0000000  0.6508444  3
    539    540    559    549     1  0.0000000  1.2552000  3
    540    539    537    556     1  0.0000000  0.6508444  3
    540    539    546    548     1  0.0000000  1.0460000  1
    540    539    546    548     1  0.0000000  0.6694400  3
    540    541    545    555     1  0.0000000  1.0460000  1
    540    541    545    555     1  0.0000000  0.6694400  3
    541    540    539    543     1  0.0000000  0.6508444  3
    541    540    559    549     1  0.0000000  1.2552000  3
    542    540    539    546     1  0.0000000  1.0460000  1
    542    540    539    546     1  0.0000000  0.0000000  3
    542    540    539    543     1  0.0000000  0.6508444  3
    542    540    541    545     1  0.0000000  1.0460000  1
    542    540    541    545     1  0.0000000  0.0000000  3
    542    540    541    554     1  0.0000000  1.0460000  1
    542    540    541    554     1  0.0000000  0.0000000  3
    542    540    541    544     1  0.0000000  0.6508444  3
    542    540    559    549     1  0.0000000  1.2552000  3
    543    539    537    557     1  0.0000000  1.0460000  1
    543    539    537    557     1  0.0000000  0.0000000  3
    543    539    537    556     1  0.0000000  0.6508444  3
    543    539    540    559     1  0.0000000  0.6508444  3
    543    539    546    548     1  0.0000000  0.6973333  3
    544    541    540    559     1  0.0000000  0.6508444  3
    544    541    545    555     1  0.0000000  0.6973333  3
    546    539    537    556     1  0.0000000  1.0460000  1
    546    539    537    556     1  0.0000000  0.0000000  3
    547    536    537    556     1  0.0000000  0.6508444  3
    550    547    536    554     1  0.0000000  1.0460000  1
    550    547    536    554     1  0.0000000  0.0000000  3
    550    547    552    553     1  0.0000000  0.6973333  3
    551    547    536    554     1  0.0000000  1.0460000  1
    551    547    536    554     1  0.0000000  0.0000000  3
    551    547    552    553     1  0.0000000  0.6973333  3
    554    536    537    556     1  0.0000000  1.0460000  1
    554    536    537    556     1  0.0000000  0.0000000  3
    554    541    545    555     1  0.0000000  0.6973333  3
    556    537    557    558     1  0.0000000  0.6973333  3
    560    562    564    566     1  0.0000000  0.6508444  3
    560    562    564    567     1  0.0000000  0.6508444  3
    561    560    562    564     1  0.0000000  0.0000000  2
    561    560    562    563     1  0.0000000  0.0000000  2
    561    560    562    565     1  0.0000000  0.0000000  2
    563    562    564    568     1  0.0000000  0.6508444  3
    563    562    564    566     1  0.0000000  0.6508444  3
    563    562    564    567     1  0.0000000  0.6508444  3
    564    568    569    578     1  0.0000000  1.2552000  3
    564    568    569    579     1  0.0000000  1.2552000  3
    564    568    570    571     1  0.0000000  1.2552000  3
    564    568    570    573     1  0.0000000  1.2552000  3
    565    562    564    568     1  0.0000000  0.6508444  3
    565    562    564    566     1  0.0000000  0.6508444  3
    565    562    564    567     1  0.0000000  0.6508444  3
    566    564    568    569     1  0.0000000  1.2552000  3
    566    564    568    570     1  0.0000000  1.2552000  3
    567    564    568    569     1  0.0000000  1.2552000  3
    567    564    568    570     1  0.0000000  1.2552000  3
    568    569    580    581     1  0.0000000  0.6508444  3
    568    569    580    582     1  0.0000000  0.6508444  3
    568    570    572    574     1  0.0000000  0.6508444  3
    568    570    572    575     1  0.0000000  0.6508444  3
    569    568    570    571     1  0.0000000  1.2552000  3
    569    568    570    573     1  0.0000000  1.2552000  3
    570    568    569    578     1  0.0000000  1.2552000  3
    570    568    569    579     1  0.0000000  1.2552000  3
    571    570    572    576     1  0.0000000  0.6508444  3
    571    570    572    574     1  0.0000000  0.6508444  3
    571    570    572    575     1  0.0000000  0.6508444  3
    572    576    608    598     1  180.0000771  6.0668000  2
    572    576    608    598     1  180.0000771  1.4644000  4
    573    570    572    576     1  0.0000000  0.6508444  3
    573    570    572    574     1  0.0000000  0.6508444  3
    573    570    572    575     1  0.0000000  0.6508444  3
    574    572    576    577     1  0.0000000  3.3472000  1
    574    572    576    577     1  0.0000000  0.0000000  2
    574    572    576    577     1  180.0000771  0.3347200  3
    574    572    576    608     1  180.0000771  0.0000000  2
    575    572    576    577     1  0.0000000  3.3472000  1
    575    572    576    577     1  0.0000000  0.0000000  2
    575    572    576    577     1  180.0000771  0.3347200  3
    575    572    576    608     1  180.0000771  0.0000000  2
    576    608    589    591     1  0.0000000  1.2552000  3
    577    576    608    598     1  180.0000771  6.0668000  2
    577    576    608    598     1  180.0000771  1.4644000  4
    578    569    580    583     1  0.0000000  0.6508444  3
    578    569    580    581     1  0.0000000  0.6508444  3
    578    569    580    582     1  0.0000000  0.6508444  3
    579    569    580    583     1  0.0000000  0.6508444  3
    579    569    580    581     1  0.0000000  0.6508444  3
    579    569    580    582     1  0.0000000  0.6508444  3
    580    583    632    622     1  180.0000771  6.0668000  2
    580    583    632    622     1  180.0000771  1.4644000  4
    581    580    583    584     1  0.0000000  3.3472000  1
    581    580    583    584     1  0.0000000  0.0000000  2
    581    580    583    584     1  180.0000771  0.3347200  3
    581    580    583    632     1  180.0000771  0.0000000  2
    582    580    583    584     1  0.0000000  3.3472000  1
    582    580    583    584     1  0.0000000  0.0000000  2
    582    580    583    584     1  180.0000771  0.3347200  3
    582    580    583    632     1  180.0000771  0.0000000  2
    583    632    613    615     1  0.0000000  1.2552000  3
    584    583    632    622     1  180.0000771  6.0668000  2
    584    583    632    622     1  180.0000771  1.4644000  4
    585    586    588    592     1  0.0000000  0.6508444  3
    585    586    606    607     1  0.0000000  1.0460000  1
    585    586    606    607     1  0.0000000  0.6694400  3
    585    596    601    602     1  0.0000000  1.0460000  1
    585    596    601    602     1  0.0000000  0.6694400  3
    585    603    590    593     1  0.0000000  1.6038667  3
    586    588    589    591     1  0.0000000  0.6508444  3
    586    588    595    597     1  0.0000000  1.0460000  1
    586    588    595    597     1  0.0000000  0.6694400  3
    586    585    596    599     1  0.0000000  0.6508444  3
    586    585    596    600     1  0.0000000  0.6508444  3
    587    585    586    588     1  0.0000000  0.6508444  3
    587    585    586    606     1  0.0000000  1.0460000  1
    587    585    586    606     1  0.0000000  0.0000000  3
    587    585    586    605     1  0.0000000  0.6508444  3
    587    585    596    601     1  0.0000000  1.0460000  1
    587    585    596    601     1  0.0000000  0.0000000  3
    587    585    596    599     1  0.0000000  0.6508444  3
    587    585    596    600     1  0.0000000  0.6508444  3
    587    585    603    590     1  0.0000000  1.6038667  3
    588    589    590    593     1  0.0000000  0.6508444  3
    588    589    608    598     1  0.0000000  1.2552000  3
    588    586    606    607     1  0.0000000  1.0460000  1
    588    586    606    607     1  0.0000000  0.6694400  3
    589    590    594    604     1  0.0000000  1.0460000  1
    589    590    594    604     1  0.0000000  0.6694400  3
    589    588    595    597     1  0.0000000  1.0460000  1
    589    588    595    597     1  0.0000000  0.6694400  3
    589    588    586    605     1  0.0000000  0.6508444  3
    590    589    608    598     1  0.0000000  1.2552000  3
    590    589    588    592     1  0.0000000  0.6508444  3
    591    589    590    594     1  0.0000000  1.0460000  1
    591    589    590    594     1  0.0000000  0.0000000  3
    591    589    590    603     1  0.0000000  1.0460000  1
    591    589    590    603     1  0.0000000  0.0000000  3
    591    589    590    593     1  0.0000000  0.6508444  3
    591    589    608    598     1  0.0000000  1.2552000  3
    591    589    588    595     1  0.0000000  1.0460000  1
    591    589    588    595     1  0.0000000  0.0000000  3
    591    589    588    592     1  0.0000000  0.6508444  3
    592    588    589    608     1  0.0000000  0.6508444  3
    592    588    595    597     1  0.0000000  0.6973333  3
    592    588    586    606     1  0.0000000  1.0460000  1
    592    588    586    606     1  0.0000000  0.0000000  3
    592    588    586    605     1  0.0000000  0.6508444  3
    593    590    594    604     1  0.0000000  0.6973333  3
    593    590    589    608     1  0.0000000  0.6508444  3
    595    588    586    605     1  0.0000000  1.0460000  1
    595    588    586    605     1  0.0000000  0.0000000  3
    596    585    586    605     1  0.0000000  0.6508444  3
    599    596    601    602     1  0.0000000  0.6973333  3
    599    596    585    603     1  0.0000000  1.0460000  1
    599    596    585    603     1  0.0000000  0.0000000  3
    600    596    601    602     1  0.0000000  0.6973333  3
    600    596    585    603     1  0.0000000  1.0460000  1
    600    596    585    603     1  0.0000000  0.0000000  3
    603    590    594    604     1  0.0000000  0.6973333  3
    603    585    586    605     1  0.0000000  1.0460000  1
    603    585    586    605     1  0.0000000  0.0000000  3
    605    586    606    607     1  0.0000000  0.6973333  3
    609    610    612    616     1  0.0000000  0.6508444  3
    609    610    630    631     1  0.0000000  1.0460000  1
    609    610    630    631     1  0.0000000  0.6694400  3
    609    620    625    626     1  0.0000000  1.0460000  1
    609    620    625    626     1  0.0000000  0.6694400  3
    609    627    614    617     1  0.0000000  1.6038667  3
    610    612    613    615     1  0.0000000  0.6508444  3
    610    612    619    621     1  0.0000000  1.0460000  1
    610    612    619    621     1  0.0000000  0.6694400  3
    610    609    620    623     1  0.0000000  0.6508444  3
    610    609    620    624     1  0.0000000  0.6508444  3
    611    609    610    612     1  0.0000000  0.6508444  3
    611    609    610    630     1  0.0000000  1.0460000  1
    611    609    610    630     1  0.0000000  0.0000000  3
    611    609    610    629     1  0.0000000  0.6508444  3
    611    609    620    625     1  0.0000000  1.0460000  1
    611    609    620    625     1  0.0000000  0.0000000  3
    611    609    620    623     1  0.0000000  0.6508444  3
    611    609    620    624     1  0.0000000  0.6508444  3
    611    609    627    614     1  0.0000000  1.6038667  3
    612    613    614    617     1  0.0000000  0.6508444  3
    612    613    632    622     1  0.0000000  1.2552000  3
    612    610    630    631     1  0.0000000  1.0460000  1
    612    610    630    631     1  0.0000000  0.6694400  3
    613    614    618    628     1  0.0000000  1.0460000  1
    613    614    618    628     1  0.0000000  0.6694400  3
    613    612    619    621     1  0.0000000  1.0460000  1
    613    612    619    621     1  0.0000000  0.6694400  3
    613    612    610    629     1  0.0000000  0.6508444  3
    614    613    632    622     1  0.0000000  1.2552000  3
    614    613    612    616     1  0.0000000  0.6508444  3
    615    613    614    618     1  0.0000000  1.0460000  1
    615    613    614    618     1  0.0000000  0.0000000  3
    615    613    614    627     1  0.0000000  1.0460000  1
    615    613    614    627     1  0.0000000  0.0000000  3
    615    613    614    617     1  0.0000000  0.6508444  3
    615    613    632    622     1  0.0000000  1.2552000  3
    615    613    612    619     1  0.0000000  1.0460000  1
    615    613    612    619     1  0.0000000  0.0000000  3
    615    613    612    616     1  0.0000000  0.6508444  3
    616    612    613    632     1  0.0000000  0.6508444  3
    616    612    619    621     1  0.0000000  0.6973333  3
    616    612    610    630     1  0.0000000  1.0460000  1
    616    612    610    630     1  0.0000000  0.0000000  3
    616    612    610    629     1  0.0000000  0.6508444  3
    617    614    618    628     1  0.0000000  0.6973333  3
    617    614    613    632     1  0.0000000  0.6508444  3
    619    612    610    629     1  0.0000000  1.0460000  1
    619    612    610    629     1  0.0000000  0.0000000  3
    620    609    610    629     1  0.0000000  0.6508444  3
    623    620    625    626     1  0.0000000  0.6973333  3
    623    620    609    627     1  0.0000000  1.0460000  1
    623    620    609    627     1  0.0000000  0.0000000  3
    624    620    625    626     1  0.0000000  0.6973333  3
    624    620    609    627     1  0.0000000  1.0460000  1
    624    620    609    627     1  0.0000000  0.0000000  3
    627    614    618    628     1  0.0000000  0.6973333  3
    627    609    610    629     1  0.0000000  1.0460000  1
    627    609    610    629     1  0.0000000  0.0000000  3
    629    610    630    631     1  0.0000000  0.6973333  3
    633    635    637    639     1  0.0000000  0.6508444  3
    633    635    637    640     1  0.0000000  0.6508444  3
    634    633    635    637     1  0.0000000  0.0000000  2
    634    633    635    636     1  0.0000000  0.0000000  2
    634    633    635    638     1  0.0000000  0.0000000  2
    636    635    637    641     1  0.0000000  0.6508444  3
    636    635    637    639     1  0.0000000  0.6508444  3
    636    635    637    640     1  0.0000000  0.6508444  3
    637    641    642    651     1  0.0000000  1.2552000  3
    637    641    642    652     1  0.0000000  1.2552000  3
    637    641    643    644     1  0.0000000  1.2552000  3
    637    641    643    646     1  0.0000000  1.2552000  3
    638    635    637    641     1  0.0000000  0.6508444  3
    638    635    637    639     1  0.0000000  0.6508444  3
    638    635    637    640     1  0.0000000  0.6508444  3
    639    637    641    642     1  0.0000000  1.2552000  3
    639    637    641    643     1  0.0000000  1.2552000  3
    640    637    641    642     1  0.0000000  1.2552000  3
    640    637    641    643     1  0.0000000  1.2552000  3
    641    642    653    654     1  0.0000000  0.6508444  3
    641    642    653    655     1  0.0000000  0.6508444  3
    641    643    645    647     1  0.0000000  0.6508444  3
    641    643    645    648     1  0.0000000  0.6508444  3
    642    641    643    644     1  0.0000000  1.2552000  3
    642    641    643    646     1  0.0000000  1.2552000  3
    643    641    642    651     1  0.0000000  1.2552000  3
    643    641    642    652     1  0.0000000  1.2552000  3
    644    643    645    649     1  0.0000000  0.6508444  3
    644    643    645    647     1  0.0000000  0.6508444  3
    644    643    645    648     1  0.0000000  0.6508444  3
    645    649    681    671     1  180.0000771  6.0668000  2
    645    649    681    671     1  180.0000771  1.4644000  4
    646    643    645    649     1  0.0000000  0.6508444  3
    646    643    645    647     1  0.0000000  0.6508444  3
    646    643    645    648     1  0.0000000  0.6508444  3
    647    645    649    650     1  0.0000000  3.3472000  1
    647    645    649    650     1  0.0000000  0.0000000  2
    647    645    649    650     1  180.0000771  0.3347200  3
    647    645    649    681     1  180.0000771  0.0000000  2
    648    645    649    650     1  0.0000000  3.3472000  1
    648    645    649    650     1  0.0000000  0.0000000  2
    648    645    649    650     1  180.0000771  0.3347200  3
    648    645    649    681     1  180.0000771  0.0000000  2
    649    681    662    664     1  0.0000000  1.2552000  3
    650    649    681    671     1  180.0000771  6.0668000  2
    650    649    681    671     1  180.0000771  1.4644000  4
    651    642    653    656     1  0.0000000  0.6508444  3
    651    642    653    654     1  0.0000000  0.6508444  3
    651    642    653    655     1  0.0000000  0.6508444  3
    652    642    653    656     1  0.0000000  0.6508444  3
    652    642    653    654     1  0.0000000  0.6508444  3
    652    642    653    655     1  0.0000000  0.6508444  3
    653    656    705    695     1  180.0000771  6.0668000  2
    653    656    705    695     1  180.0000771  1.4644000  4
    654    653    656    657     1  0.0000000  3.3472000  1
    654    653    656    657     1  0.0000000  0.0000000  2
    654    653    656    657     1  180.0000771  0.3347200  3
    654    653    656    705     1  180.0000771  0.0000000  2
    655    653    656    657     1  0.0000000  3.3472000  1
    655    653    656    657     1  0.0000000  0.0000000  2
    655    653    656    657     1  180.0000771  0.3347200  3
    655    653    656    705     1  180.0000771  0.0000000  2
    656    705    686    688     1  0.0000000  1.2552000  3
    657    656    705    695     1  180.0000771  6.0668000  2
    657    656    705    695     1  180.0000771  1.4644000  4
    658    659    661    665     1  0.0000000  0.6508444  3
    658    659    679    680     1  0.0000000  1.0460000  1
    658    659    679    680     1  0.0000000  0.6694400  3
    658    669    674    675     1  0.0000000  1.0460000  1
    658    669    674    675     1  0.0000000  0.6694400  3
    658    676    663    666     1  0.0000000  1.6038667  3
    659    658    669    672     1  0.0000000  0.6508444  3
    659    658    669    673     1  0.0000000  0.6508444  3
    659    661    662    664     1  0.0000000  0.6508444  3
    659    661    668    670     1  0.0000000  1.0460000  1
    659    661    668    670     1  0.0000000  0.6694400  3
    660    658    659    661     1  0.0000000  0.6508444  3
    660    658    659    679     1  0.0000000  1.0460000  1
    660    658    659    679     1  0.0000000  0.0000000  3
    660    658    659    678     1  0.0000000  0.6508444  3
    660    658    669    674     1  0.0000000  1.0460000  1
    660    658    669    674     1  0.0000000  0.0000000  3
    660    658    669    672     1  0.0000000  0.6508444  3
    660    658    669    673     1  0.0000000  0.6508444  3
    660    658    676    663     1  0.0000000  1.6038667  3
    661    659    679    680     1  0.0000000  1.0460000  1
    661    659    679    680     1  0.0000000  0.6694400  3
    661    662    663    666     1  0.0000000  0.6508444  3
    661    662    681    671     1  0.0000000  1.2552000  3
    662    661    659    678     1  0.0000000  0.6508444  3
    662    661    668    670     1  0.0000000  1.0460000  1
    662    661    668    670     1  0.0000000  0.6694400  3
    662    663    667    677     1  0.0000000  1.0460000  1
    662    663    667    677     1  0.0000000  0.6694400  3
    663    662    661    665     1  0.0000000  0.6508444  3
    663    662    681    671     1  0.0000000  1.2552000  3
    664    662    661    668     1  0.0000000  1.0460000  1
    664    662    661    668     1  0.0000000  0.0000000  3
    664    662    661    665     1  0.0000000  0.6508444  3
    664    662    663    667     1  0.0000000  1.0460000  1
    664    662    663    667     1  0.0000000  0.0000000  3
    664    662    663    676     1  0.0000000  1.0460000  1
    664    662    663    676     1  0.0000000  0.0000000  3
    664    662    663    666     1  0.0000000  0.6508444  3
    664    662    681    671     1  0.0000000  1.2552000  3
    665    661    659    679     1  0.0000000  1.0460000  1
    665    661    659    679     1  0.0000000  0.0000000  3
    665    661    659    678     1  0.0000000  0.6508444  3
    665    661    662    681     1  0.0000000  0.6508444  3
    665    661    668    670     1  0.0000000  0.6973333  3
    666    663    662    681     1  0.0000000  0.6508444  3
    666    663    667    677     1  0.0000000  0.6973333  3
    668    661    659    678     1  0.0000000  1.0460000  1
    668    661    659    678     1  0.0000000  0.0000000  3
    669    658    659    678     1  0.0000000  0.6508444  3
    672    669    658    676     1  0.0000000  1.0460000  1
    672    669    658    676     1  0.0000000  0.0000000  3
    672    669    674    675     1  0.0000000  0.6973333  3
    673    669    658    676     1  0.0000000  1.0460000  1
    673    669    658    676     1  0.0000000  0.0000000  3
    673    669    674    675     1  0.0000000  0.6973333  3
    676    658    659    678     1  0.0000000  1.0460000  1
    676    658    659    678     1  0.0000000  0.0000000  3
    676    663    667    677     1  0.0000000  0.6973333  3
    678    659    679    680     1  0.0000000  0.6973333  3
    682    683    685    689     1  0.0000000  0.6508444  3
    682    683    703    704     1  0.0000000  1.0460000  1
    682    683    703    704     1  0.0000000  0.6694400  3
    682    693    698    699     1  0.0000000  1.0460000  1
    682    693    698    699     1  0.0000000  0.6694400  3
    682    700    687    690     1  0.0000000  1.6038667  3
    683    682    693    696     1  0.0000000  0.6508444  3
    683    682    693    697     1  0.0000000  0.6508444  3
    683    685    686    688     1  0.0000000  0.6508444  3
    683    685    692    694     1  0.0000000  1.0460000  1
    683    685    692    694     1  0.0000000  0.6694400  3
    684    682    683    685     1  0.0000000  0.6508444  3
    684    682    683    703     1  0.0000000  1.0460000  1
    684    682    683    703     1  0.0000000  0.0000000  3
    684    682    683    702     1  0.0000000  0.6508444  3
    684    682    693    698     1  0.0000000  1.0460000  1
    684    682    693    698     1  0.0000000  0.0000000  3
    684    682    693    696     1  0.0000000  0.6508444  3
    684    682    693    697     1  0.0000000  0.6508444  3
    684    682    700    687     1  0.0000000  1.6038667  3
    685    683    703    704     1  0.0000000  1.0460000  1
    685    683    703    704     1  0.0000000  0.6694400  3
    685    686    687    690     1  0.0000000  0.6508444  3
    685    686    705    695     1  0.0000000  1.2552000  3
    686    685    683    702     1  0.0000000  0.6508444  3
    686    685    692    694     1  0.0000000  1.0460000  1
    686    685    692    694     1  0.0000000  0.6694400  3
    686    687    691    701     1  0.0000000  1.0460000  1
    686    687    691    701     1  0.0000000  0.6694400  3
    687    686    685    689     1  0.0000000  0.6508444  3
    687    686    705    695     1  0.0000000  1.2552000  3
    688    686    685    692     1  0.0000000  1.0460000  1
    688    686    685    692     1  0.0000000  0.0000000  3
    688    686    685    689     1  0.0000000  0.6508444  3
    688    686    687    691     1  0.0000000  1.0460000  1
    688    686    687    691     1  0.0000000  0.0000000  3
    688    686    687    700     1  0.0000000  1.0460000  1
    688    686    687    700     1  0.0000000  0.0000000  3
    688    686    687    690     1  0.0000000  0.6508444  3
    688    686    705    695     1  0.0000000  1.2552000  3
    689    685    683    703     1  0.0000000  1.0460000  1
    689    685    683    703     1  0.0000000  0.0000000  3
    689    685    683    702     1  0.0000000  0.6508444  3
    689    685    686    705     1  0.0000000  0.6508444  3
    689    685    692    694     1  0.0000000  0.6973333  3
    690    687    686    705     1  0.0000000  0.6508444  3
    690    687    691    701     1  0.0000000  0.6973333  3
    692    685    683    702     1  0.0000000  1.0460000  1
    692    685    683    702     1  0.0000000  0.0000000  3
    693    682    683    702     1  0.0000000  0.6508444  3
    696    693    682    700     1  0.0000000  1.0460000  1
    696    693    682    700     1  0.0000000  0.0000000  3
    696    693    698    699     1  0.0000000  0.6973333  3
    697    693    682    700     1  0.0000000  1.0460000  1
    697    693    682    700     1  0.0000000  0.0000000  3
    697    693    698    699     1  0.0000000  0.6973333  3
    700    682    683    702     1  0.0000000  1.0460000  1
    700    682    683    702     1  0.0000000  0.0000000  3
    700    687    691    701     1  0.0000000  0.6973333  3
    702    683    703    704     1  0.0000000  0.6973333  3
    706    708    710    712     1  0.0000000  0.6508444  3
    706    708    710    713     1  0.0000000  0.6508444  3
    707    706    708    710     1  0.0000000  0.0000000  2
    707    706    708    709     1  0.0000000  0.0000000  2
    707    706    708    711     1  0.0000000  0.0000000  2
    709    708    710    714     1  0.0000000  0.6508444  3
    709    708    710    712     1  0.0000000  0.6508444  3
    709    708    710    713     1  0.0000000  0.6508444  3
    710    714    715    724     1  0.0000000  1.2552000  3
    710    714    715    725     1  0.0000000  1.2552000  3
    710    714    716    717     1  0.0000000  1.2552000  3
    710    714    716    719     1  0.0000000  1.2552000  3
    711    708    710    714     1  0.0000000  0.6508444  3
    711    708    710    712     1  0.0000000  0.6508444  3
    711    708    710    713     1  0.0000000  0.6508444  3
    712    710    714    715     1  0.0000000  1.2552000  3
    712    710    714    716     1  0.0000000  1.2552000  3
    713    710    714    715     1  0.0000000  1.2552000  3
    713    710    714    716     1  0.0000000  1.2552000  3
    714    715    726    727     1  0.0000000  0.6508444  3
    714    715    726    728     1  0.0000000  0.6508444  3
    714    716    718    720     1  0.0000000  0.6508444  3
    714    716    718    721     1  0.0000000  0.6508444  3
    715    714    716    717     1  0.0000000  1.2552000  3
    715    714    716    719     1  0.0000000  1.2552000  3
    716    714    715    724     1  0.0000000  1.2552000  3
    716    714    715    725     1  0.0000000  1.2552000  3
    717    716    718    722     1  0.0000000  0.6508444  3
    717    716    718    720     1  0.0000000  0.6508444  3
    717    716    718    721     1  0.0000000  0.6508444  3
    718    722    754    744     1  180.0000771  6.0668000  2
    718    722    754    744     1  180.0000771  1.4644000  4
    719    716    718    722     1  0.0000000  0.6508444  3
    719    716    718    720     1  0.0000000  0.6508444  3
    719    716    718    721     1  0.0000000  0.6508444  3
    720    718    722    723     1  0.0000000  3.3472000  1
    720    718    722    723     1  0.0000000  0.0000000  2
    720    718    722    723     1  180.0000771  0.3347200  3
    720    718    722    754     1  180.0000771  0.0000000  2
    721    718    722    723     1  0.0000000  3.3472000  1
    721    718    722    723     1  0.0000000  0.0000000  2
    721    718    722    723     1  180.0000771  0.3347200  3
    721    718    722    754     1  180.0000771  0.0000000  2
    722    754    735    737     1  0.0000000  1.2552000  3
    723    722    754    744     1  180.0000771  6.0668000  2
    723    722    754    744     1  180.0000771  1.4644000  4
    724    715    726    729     1  0.0000000  0.6508444  3
    724    715    726    727     1  0.0000000  0.6508444  3
    724    715    726    728     1  0.0000000  0.6508444  3
    725    715    726    729     1  0.0000000  0.6508444  3
    725    715    726    727     1  0.0000000  0.6508444  3
    725    715    726    728     1  0.0000000  0.6508444  3
    726    729    778    768     1  180.0000771  6.0668000  2
    726    729    778    768     1  180.0000771  1.4644000  4
    727    726    729    730     1  0.0000000  3.3472000  1
    727    726    729    730     1  0.0000000  0.0000000  2
    727    726    729    730     1  180.0000771  0.3347200  3
    727    726    729    778     1  180.0000771  0.0000000  2
    728    726    729    730     1  0.0000000  3.3472000  1
    728    726    729    730     1  0.0000000  0.0000000  2
    728    726    729    730     1  180.0000771  0.3347200  3
    728    726    729    778     1  180.0000771  0.0000000  2
    729    778    759    761     1  0.0000000  1.2552000  3
    730    729    778    768     1  180.0000771  6.0668000  2
    730    729    778    768     1  180.0000771  1.4644000  4
    731    732    734    738     1  0.0000000  0.6508444  3
    731    732    752    753     1  0.0000000  1.0460000  1
    731    732    752    753     1  0.0000000  0.6694400  3
    731    742    747    748     1  0.0000000  1.0460000  1
    731    742    747    748     1  0.0000000  0.6694400  3
    731    749    736    739     1  0.0000000  1.6038667  3
    732    734    735    737     1  0.0000000  0.6508444  3
    732    734    741    743     1  0.0000000  1.0460000  1
    732    734    741    743     1  0.0000000  0.6694400  3
    732    731    742    745     1  0.0000000  0.6508444  3
    732    731    742    746     1  0.0000000  0.6508444  3
    733    731    732    734     1  0.0000000  0.6508444  3
    733    731    732    752     1  0.0000000  1.0460000  1
    733    731    732    752     1  0.0000000  0.0000000  3
    733    731    732    751     1  0.0000000  0.6508444  3
    733    731    742    747     1  0.0000000  1.0460000  1
    733    731    742    747     1  0.0000000  0.0000000  3
    733    731    742    745     1  0.0000000  0.6508444  3
    733    731    742    746     1  0.0000000  0.6508444  3
    733    731    749    736     1  0.0000000  1.6038667  3
    734    735    736    739     1  0.0000000  0.6508444  3
    734    735    754    744     1  0.0000000  1.2552000  3
    734    732    752    753     1  0.0000000  1.0460000  1
    734    732    752    753     1  0.0000000  0.6694400  3
    735    736    740    750     1  0.0000000  1.0460000  1
    735    736    740    750     1  0.0000000  0.6694400  3
    735    734    741    743     1  0.0000000  1.0460000  1
    735    734    741    743     1  0.0000000  0.6694400  3
    735    734    732    751     1  0.0000000  0.6508444  3
    736    735    754    744     1  0.0000000  1.2552000  3
    736    735    734    738     1  0.0000000  0.6508444  3
    737    735    736    740     1  0.0000000  1.0460000  1
    737    735    736    740     1  0.0000000  0.0000000  3
    737    735    736    749     1  0.0000000  1.0460000  1
    737    735    736    749     1  0.0000000  0.0000000  3
    737    735    736    739     1  0.0000000  0.6508444  3
    737    735    754    744     1  0.0000000  1.2552000  3
    737    735    734    741     1  0.0000000  1.0460000  1
    737    735    734    741     1  0.0000000  0.0000000  3
    737    735    734    738     1  0.0000000  0.6508444  3
    738    734    735    754     1  0.0000000  0.6508444  3
    738    734    741    743     1  0.0000000  0.6973333  3
    738    734    732    752     1  0.0000000  1.0460000  1
    738    734    732    752     1  0.0000000  0.0000000  3
    738    734    732    751     1  0.0000000  0.6508444  3
    739    736    740    750     1  0.0000000  0.6973333  3
    739    736    735    754     1  0.0000000  0.6508444  3
    741    734    732    751     1  0.0000000  1.0460000  1
    741    734    732    751     1  0.0000000  0.0000000  3
    742    731    732    751     1  0.0000000  0.6508444  3
    745    742    747    748     1  0.0000000  0.6973333  3
    745    742    731    749     1  0.0000000  1.0460000  1
    745    742    731    749     1  0.0000000  0.0000000  3
    746    742    747    748     1  0.0000000  0.6973333  3
    746    742    731    749     1  0.0000000  1.0460000  1
    746    742    731    749     1  0.0000000  0.0000000  3
    749    736    740    750     1  0.0000000  0.6973333  3
    749    731    732    751     1  0.0000000  1.0460000  1
    749    731    732    751     1  0.0000000  0.0000000  3
    751    732    752    753     1  0.0000000  0.6973333  3
    755    756    758    762     1  0.0000000  0.6508444  3
    755    756    776    777     1  0.0000000  1.0460000  1
    755    756    776    777     1  0.0000000  0.6694400  3
    755    766    771    772     1  0.0000000  1.0460000  1
    755    766    771    772     1  0.0000000  0.6694400  3
    755    773    760    763     1  0.0000000  1.6038667  3
    756    758    759    761     1  0.0000000  0.6508444  3
    756    758    765    767     1  0.0000000  1.0460000  1
    756    758    765    767     1  0.0000000  0.6694400  3
    756    755    766    769     1  0.0000000  0.6508444  3
    756    755    766    770     1  0.0000000  0.6508444  3
    757    755    756    758     1  0.0000000  0.6508444  3
    757    755    756    776     1  0.0000000  1.0460000  1
    757    755    756    776     1  0.0000000  0.0000000  3
    757    755    756    775     1  0.0000000  0.6508444  3
    757    755    766    771     1  0.0000000  1.0460000  1
    757    755    766    771     1  0.0000000  0.0000000  3
    757    755    766    769     1  0.0000000  0.6508444  3
    757    755    766    770     1  0.0000000  0.6508444  3
    757    755    773    760     1  0.0000000  1.6038667  3
    758    759    760    763     1  0.0000000  0.6508444  3
    758    759    778    768     1  0.0000000  1.2552000  3
    758    756    776    777     1  0.0000000  1.0460000  1
    758    756    776    777     1  0.0000000  0.6694400  3
    759    760    764    774     1  0.0000000  1.0460000  1
    759    760    764    774     1  0.0000000  0.6694400  3
    759    758    765    767     1  0.0000000  1.0460000  1
    759    758    765    767     1  0.0000000  0.6694400  3
    759    758    756    775     1  0.0000000  0.6508444  3
    760    759    778    768     1  0.0000000  1.2552000  3
    760    759    758    762     1  0.0000000  0.6508444  3
    761    759    760    764     1  0.0000000  1.0460000  1
    761    759    760    764     1  0.0000000  0.0000000  3
    761    759    760    773     1  0.0000000  1.0460000  1
    761    759    760    773     1  0.0000000  0.0000000  3
    761    759    760    763     1  0.0000000  0.6508444  3
    761    759    778    768     1  0.0000000  1.2552000  3
    761    759    758    765     1  0.0000000  1.0460000  1
    761    759    758    765     1  0.0000000  0.0000000  3
    761    759    758    762     1  0.0000000  0.6508444  3
    762    758    759    778     1  0.0000000  0.6508444  3
    762    758    765    767     1  0.0000000  0.6973333  3
    762    758    756    776     1  0.0000000  1.0460000  1
    762    758    756    776     1  0.0000000  0.0000000  3
    762    758    756    775     1  0.0000000  0.6508444  3
    763    760    764    774     1  0.0000000  0.6973333  3
    763    760    759    778     1  0.0000000  0.6508444  3
    765    758    756    775     1  0.0000000  1.0460000  1
    765    758    756    775     1  0.0000000  0.0000000  3
    766    755    756    775     1  0.0000000  0.6508444  3
    769    766    771    772     1  0.0000000  0.6973333  3
    769    766    755    773     1  0.0000000  1.0460000  1
    769    766    755    773     1  0.0000000  0.0000000  3
    770    766    771    772     1  0.0000000  0.6973333  3
    770    766    755    773     1  0.0000000  1.0460000  1
    770    766    755    773     1  0.0000000  0.0000000  3
    773    760    764    774     1  0.0000000  0.6973333  3
    773    755    756    775     1  0.0000000  1.0460000  1
    773    755    756    775     1  0.0000000  0.0000000  3
    775    756    776    777     1  0.0000000  0.6973333  3
    779    781    783    785     1  0.0000000  0.6508444  3
    779    781    783    786     1  0.0000000  0.6508444  3
    780    779    781    783     1  0.0000000  0.0000000  2
    780    779    781    782     1  0.0000000  0.0000000  2
    780    779    781    784     1  0.0000000  0.0000000  2
    782    781    783    787     1  0.0000000  0.6508444  3
    782    781    783    785     1  0.0000000  0.6508444  3
    782    781    783    786     1  0.0000000  0.6508444  3
    783    787    788    797     1  0.0000000  1.2552000  3
    783    787    788    798     1  0.0000000  1.2552000  3
    783    787    789    790     1  0.0000000  1.2552000  3
    783    787    789    792     1  0.0000000  1.2552000  3
    784    781    783    787     1  0.0000000  0.6508444  3
    784    781    783    785     1  0.0000000  0.6508444  3
    784    781    783    786     1  0.0000000  0.6508444  3
    785    783    787    788     1  0.0000000  1.2552000  3
    785    783    787    789     1  0.0000000  1.2552000  3
    786    783    787    788     1  0.0000000  1.2552000  3
    786    783    787    789     1  0.0000000  1.2552000  3
    787    788    799    800     1  0.0000000  0.6508444  3
    787    788    799    801     1  0.0000000  0.6508444  3
    787    789    791    793     1  0.0000000  0.6508444  3
    787    789    791    794     1  0.0000000  0.6508444  3
    788    787    789    790     1  0.0000000  1.2552000  3
    788    787    789    792     1  0.0000000  1.2552000  3
    789    787    788    797     1  0.0000000  1.2552000  3
    789    787    788    798     1  0.0000000  1.2552000  3
    790    789    791    795     1  0.0000000  0.6508444  3
    790    789    791    793     1  0.0000000  0.6508444  3
    790    789    791    794     1  0.0000000  0.6508444  3
    791    795    827    817     1  180.0000771  6.0668000  2
    791    795    827    817     1  180.0000771  1.4644000  4
    792    789    791    795     1  0.0000000  0.6508444  3
    792    789    791    793     1  0.0000000  0.6508444  3
    792    789    791    794     1  0.0000000  0.6508444  3
    793    791    795    796     1  0.0000000  3.3472000  1
    793    791    795    796     1  0.0000000  0.0000000  2
    793    791    795    796     1  180.0000771  0.3347200  3
    793    791    795    827     1  180.0000771  0.0000000  2
    794    791    795    796     1  0.0000000  3.3472000  1
    794    791    795    796     1  0.0000000  0.0000000  2
    794    791    795    796     1  180.0000771  0.3347200  3
    794    791    795    827     1  180.0000771  0.0000000  2
    795    827    808    810     1  0.0000000  1.2552000  3
    796    795    827    817     1  180.0000771  6.0668000  2
    796    795    827    817     1  180.0000771  1.4644000  4
    797    788    799    802     1  0.0000000  0.6508444  3
    797    788    799    800     1  0.0000000  0.6508444  3
    797    788    799    801     1  0.0000000  0.6508444  3
    798    788    799    802     1  0.0000000  0.6508444  3
    798    788    799    800     1  0.0000000  0.6508444  3
    798    788    799    801     1  0.0000000  0.6508444  3
    799    802    851    841     1  180.0000771  6.0668000  2
    799    802    851    841     1  180.0000771  1.4644000  4
    800    799    802    803     1  0.0000000  3.3472000  1
    800    799    802    803     1  0.0000000  0.0000000  2
    800    799    802    803     1  180.0000771  0.3347200  3
    800    799    802    851     1  180.0000771  0.0000000  2
    801    799    802    803     1  0.0000000  3.3472000  1
    801    799    802    803     1  0.0000000  0.0000000  2
    801    799    802    803     1  180.0000771  0.3347200  3
    801    799    802    851     1  180.0000771  0.0000000  2
    802    851    832    834     1  0.0000000  1.2552000  3
    803    802    851    841     1  180.0000771  6.0668000  2
    803    802    851    841     1  180.0000771  1.4644000  4
    804    805    807    811     1  0.0000000  0.6508444  3
    804    805    825    826     1  0.0000000  1.0460000  1
    804    805    825    826     1  0.0000000  0.6694400  3
    804    815    820    821     1  0.0000000  1.0460000  1
    804    815    820    821     1  0.0000000  0.6694400  3
    804    822    809    812     1  0.0000000  1.6038667  3
    805    804    815    818     1  0.0000000  0.6508444  3
    805    804    815    819     1  0.0000000  0.6508444  3
    805    807    808    810     1  0.0000000  0.6508444  3
    805    807    814    816     1  0.0000000  1.0460000  1
    805    807    814    816     1  0.0000000  0.6694400  3
    806    804    805    807     1  0.0000000  0.6508444  3
    806    804    805    825     1  0.0000000  1.0460000  1
    806    804    805    825     1  0.0000000  0.0000000  3
    806    804    805    824     1  0.0000000  0.6508444  3
    806    804    815    820     1  0.0000000  1.0460000  1
    806    804    815    820     1  0.0000000  0.0000000  3
    806    804    815    818     1  0.0000000  0.6508444  3
    806    804    815    819     1  0.0000000  0.6508444  3
    806    804    822    809     1  0.0000000  1.6038667  3
    807    805    825    826     1  0.0000000  1.0460000  1
    807    805    825    826     1  0.0000000  0.6694400  3
    807    808    809    812     1  0.0000000  0.6508444  3
    807    808    827    817     1  0.0000000  1.2552000  3
    808    807    805    824     1  0.0000000  0.6508444  3
    808    807    814    816     1  0.0000000  1.0460000  1
    808    807    814    816     1  0.0000000  0.6694400  3
    808    809    813    823     1  0.0000000  1.0460000  1
    808    809    813    823     1  0.0000000  0.6694400  3
    809    808    807    811     1  0.0000000  0.6508444  3
    809    808    827    817     1  0.0000000  1.2552000  3
    810    808    807    814     1  0.0000000  1.0460000  1
    810    808    807    814     1  0.0000000  0.0000000  3
    810    808    807    811     1  0.0000000  0.6508444  3
    810    808    809    813     1  0.0000000  1.0460000  1
    810    808    809    813     1  0.0000000  0.0000000  3
    810    808    809    822     1  0.0000000  1.0460000  1
    810    808    809    822     1  0.0000000  0.0000000  3
    810    808    809    812     1  0.0000000  0.6508444  3
    810    808    827    817     1  0.0000000  1.2552000  3
    811    807    805    825     1  0.0000000  1.0460000  1
    811    807    805    825     1  0.0000000  0.0000000  3
    811    807    805    824     1  0.0000000  0.6508444  3
    811    807    808    827     1  0.0000000  0.6508444  3
    811    807    814    816     1  0.0000000  0.6973333  3
    812    809    808    827     1  0.0000000  0.6508444  3
    812    809    813    823     1  0.0000000  0.6973333  3
    814    807    805    824     1  0.0000000  1.0460000  1
    814    807    805    824     1  0.0000000  0.0000000  3
    815    804    805    824     1  0.0000000  0.6508444  3
    818    815    804    822     1  0.0000000  1.0460000  1
    818    815    804    822     1  0.0000000  0.0000000  3
    818    815    820    821     1  0.0000000  0.6973333  3
    819    815    804    822     1  0.0000000  1.0460000  1
    819    815    804    822     1  0.0000000  0.0000000  3
    819    815    820    821     1  0.0000000  0.6973333  3
    822    804    805    824     1  0.0000000  1.0460000  1
    822    804    805    824     1  0.0000000  0.0000000  3
    822    809    813    823     1  0.0000000  0.6973333  3
    824    805    825    826     1  0.0000000  0.6973333  3
    828    829    831    835     1  0.0000000  0.6508444  3
    828    829    849    850     1  0.0000000  1.0460000  1
    828    829    849    850     1  0.0000000  0.6694400  3
    828    839    844    845     1  0.0000000  1.0460000  1
    828    839    844    845     1  0.0000000  0.6694400  3
    828    846    833    836     1  0.0000000  1.6038667  3
    829    828    839    842     1  0.0000000  0.6508444  3
    829    828    839    843     1  0.0000000  0.6508444  3
    829    831    832    834     1  0.0000000  0.6508444  3
    829    831    838    840     1  0.0000000  1.0460000  1
    829    831    838    840     1  0.0000000  0.6694400  3
    830    828    829    831     1  0.0000000  0.6508444  3
    830    828    829    849     1  0.0000000  1.0460000  1
    830    828    829    849     1  0.0000000  0.0000000  3
    830    828    829    848     1  0.0000000  0.6508444  3
    830    828    839    844     1  0.0000000  1.0460000  1
    830    828    839    844     1  0.0000000  0.0000000  3
    830    828    839    842     1  0.0000000  0.6508444  3
    830    828    839    843     1  0.0000000  0.6508444  3
    830    828    846    833     1  0.0000000  1.6038667  3
    831    829    849    850     1  0.0000000  1.0460000  1
    831    829    849    850     1  0.0000000  0.6694400  3
    831    832    833    836     1  0.0000000  0.6508444  3
    831    832    851    841     1  0.0000000  1.2552000  3
    832    831    829    848     1  0.0000000  0.6508444  3
    832    831    838    840     1  0.0000000  1.0460000  1
    832    831    838    840     1  0.0000000  0.6694400  3
    832    833    837    847     1  0.0000000  1.0460000  1
    832    833    837    847     1  0.0000000  0.6694400  3
    833    832    831    835     1  0.0000000  0.6508444  3
    833    832    851    841     1  0.0000000  1.2552000  3
    834    832    831    838     1  0.0000000  1.0460000  1
    834    832    831    838     1  0.0000000  0.0000000  3
    834    832    831    835     1  0.0000000  0.6508444  3
    834    832    833    837     1  0.0000000  1.0460000  1
    834    832    833    837     1  0.0000000  0.0000000  3
    834    832    833    846     1  0.0000000  1.0460000  1
    834    832    833    846     1  0.0000000  0.0000000  3
    834    832    833    836     1  0.0000000  0.6508444  3
    834    832    851    841     1  0.0000000  1.2552000  3
    835    831    829    849     1  0.0000000  1.0460000  1
    835    831    829    849     1  0.0000000  0.0000000  3
    835    831    829    848     1  0.0000000  0.6508444  3
    835    831    832    851     1  0.0000000  0.6508444  3
    835    831    838    840     1  0.0000000  0.6973333  3
    836    833    832    851     1  0.0000000  0.6508444  3
    836    833    837    847     1  0.0000000  0.6973333  3
    838    831    829    848     1  0.0000000  1.0460000  1
    838    831    829    848     1  0.0000000  0.0000000  3
    839    828    829    848     1  0.0000000  0.6508444  3
    842    839    828    846     1  0.0000000  1.0460000  1
    842    839    828    846     1  0.0000000  0.0000000  3
    842    839    844    845     1  0.0000000  0.6973333  3
    843    839    828    846     1  0.0000000  1.0460000  1
    843    839    828    846     1  0.0000000  0.0000000  3
    843    839    844    845     1  0.0000000  0.6973333  3
    846    828    829    848     1  0.0000000  1.0460000  1
    846    828    829    848     1  0.0000000  0.0000000  3
    846    833    837    847     1  0.0000000  0.6973333  3
    848    829    849    850     1  0.0000000  0.6973333  3
    852    854    856    858     1  0.0000000  0.6508444  3
    852    854    856    859     1  0.0000000  0.6508444  3
    853    852    854    856     1  0.0000000  0.0000000  2
    853    852    854    855     1  0.0000000  0.0000000  2
    853    852    854    857     1  0.0000000  0.0000000  2
    855    854    856    860     1  0.0000000  0.6508444  3
    855    854    856    858     1  0.0000000  0.6508444  3
    855    854    856    859     1  0.0000000  0.6508444  3
    856    860    861    870     1  0.0000000  1.2552000  3
    856    860    861    871     1  0.0000000  1.2552000  3
    856    860    862    863     1  0.0000000  1.2552000  3
    856    860    862    865     1  0.0000000  1.2552000  3
    857    854    856    860     1  0.0000000  0.6508444  3
    857    854    856    858     1  0.0000000  0.6508444  3
    857    854    856    859     1  0.0000000  0.6508444  3
    858    856    860    861     1  0.0000000  1.2552000  3
    858    856    860    862     1  0.0000000  1.2552000  3
    859    856    860    861     1  0.0000000  1.2552000  3
    859    856    860    862     1  0.0000000  1.2552000  3
    860    861    872    873     1  0.0000000  0.6508444  3
    860    861    872    874     1  0.0000000  0.6508444  3
    860    862    864    866     1  0.0000000  0.6508444  3
    860    862    864    867     1  0.0000000  0.6508444  3
    861    860    862    863     1  0.0000000  1.2552000  3
    861    860    862    865     1  0.0000000  1.2552000  3
    862    860    861    870     1  0.0000000  1.2552000  3
    862    860    861    871     1  0.0000000  1.2552000  3
    863    862    864    868     1  0.0000000  0.6508444  3
    863    862    864    866     1  0.0000000  0.6508444  3
    863    862    864    867     1  0.0000000  0.6508444  3
    864    868    900    890     1  180.0000771  6.0668000  2
    864    868    900    890     1  180.0000771  1.4644000  4
    865    862    864    868     1  0.0000000  0.6508444  3
    865    862    864    866     1  0.0000000  0.6508444  3
    865    862    864    867     1  0.0000000  0.6508444  3
    866    864    868    869     1  0.0000000  3.3472000  1
    866    864    868    869     1  0.0000000  0.0000000  2
    866    864    868    869     1  180.0000771  0.3347200  3
    866    864    868    900     1  180.0000771  0.0000000  2
    867    864    868    869     1  0.0000000  3.3472000  1
    867    864    868    869     1  0.0000000  0.0000000  2
    867    864    868    869     1  180.0000771  0.3347200  3
    867    864    868    900     1  180.0000771  0.0000000  2
    868    900    881    883     1  0.0000000  1.2552000  3
    869    868    900    890     1  180.0000771  6.0668000  2
    869    868    900    890     1  180.0000771  1.4644000  4
    870    861    872    875     1  0.0000000  0.6508444  3
    870    861    872    873     1  0.0000000  0.6508444  3
    870    861    872    874     1  0.0000000  0.6508444  3
    871    861    872    875     1  0.0000000  0.6508444  3
    871    861    872    873     1  0.0000000  0.6508444  3
    871    861    872    874     1  0.0000000  0.6508444  3
    872    875    924    914     1  180.0000771  6.0668000  2
    872    875    924    914     1  180.0000771  1.4644000  4
    873    872    875    876     1  0.0000000  3.3472000  1
    873    872    875    876     1  0.0000000  0.0000000  2
    873    872    875    876     1  180.0000771  0.3347200  3
    873    872    875    924     1  180.0000771  0.0000000  2
    874    872    875    876     1  0.0000000  3.3472000  1
    874    872    875    876     1  0.0000000  0.0000000  2
    874    872    875    876     1  180.0000771  0.3347200  3
    874    872    875    924     1  180.0000771  0.0000000  2
    875    924    905    907     1  0.0000000  1.2552000  3
    876    875    924    914     1  180.0000771  6.0668000  2
    876    875    924    914     1  180.0000771  1.4644000  4
    877    878    880    884     1  0.0000000  0.6508444  3
    877    878    898    899     1  0.0000000  1.0460000  1
    877    878    898    899     1  0.0000000  0.6694400  3
    877    888    893    894     1  0.0000000  1.0460000  1
    877    888    893    894     1  0.0000000  0.6694400  3
    877    895    882    885     1  0.0000000  1.6038667  3
    878    880    881    883     1  0.0000000  0.6508444  3
    878    880    887    889     1  0.0000000  1.0460000  1
    878    880    887    889     1  0.0000000  0.6694400  3
    878    877    888    891     1  0.0000000  0.6508444  3
    878    877    888    892     1  0.0000000  0.6508444  3
    879    877    878    880     1  0.0000000  0.6508444  3
    879    877    878    898     1  0.0000000  1.0460000  1
    879    877    878    898     1  0.0000000  0.0000000  3
    879    877    878    897     1  0.0000000  0.6508444  3
    879    877    888    893     1  0.0000000  1.0460000  1
    879    877    888    893     1  0.0000000  0.0000000  3
    879    877    888    891     1  0.0000000  0.6508444  3
    879    877    888    892     1  0.0000000  0.6508444  3
    879    877    895    882     1  0.0000000  1.6038667  3
    880    881    882    885     1  0.0000000  0.6508444  3
    880    881    900    890     1  0.0000000  1.2552000  3
    880    878    898    899     1  0.0000000  1.0460000  1
    880    878    898    899     1  0.0000000  0.6694400  3
    881    882    886    896     1  0.0000000  1.0460000  1
    881    882    886    896     1  0.0000000  0.6694400  3
    881    880    887    889     1  0.0000000  1.0460000  1
    881    880    887    889     1  0.0000000  0.6694400  3
    881    880    878    897     1  0.0000000  0.6508444  3
    882    881    900    890     1  0.0000000  1.2552000  3
    882    881    880    884     1  0.0000000  0.6508444  3
    883    881    882    886     1  0.0000000  1.0460000  1
    883    881    882    886     1  0.0000000  0.0000000  3
    883    881    882    895     1  0.0000000  1.0460000  1
    883    881    882    895     1  0.0000000  0.0000000  3
    883    881    882    885     1  0.0000000  0.6508444  3
    883    881    900    890     1  0.0000000  1.2552000  3
    883    881    880    887     1  0.0000000  1.0460000  1
    883    881    880    887     1  0.0000000  0.0000000  3
    883    881    880    884     1  0.0000000  0.6508444  3
    884    880    881    900     1  0.0000000  0.6508444  3
    884    880    887    889     1  0.0000000  0.6973333  3
    884    880    878    898     1  0.0000000  1.0460000  1
    884    880    878    898     1  0.0000000  0.0000000  3
    884    880    878    897     1  0.0000000  0.6508444  3
    885    882    886    896     1  0.0000000  0.6973333  3
    885    882    881    900     1  0.0000000  0.6508444  3
    887    880    878    897     1  0.0000000  1.0460000  1
    887    880    878    897     1  0.0000000  0.0000000  3
    888    877    878    897     1  0.0000000  0.6508444  3
    891    888    893    894     1  0.0000000  0.6973333  3
    891    888    877    895     1  0.0000000  1.0460000  1
    891    888    877    895     1  0.0000000  0.0000000  3
    892    888    893    894     1  0.0000000  0.6973333  3
    892    888    877    895     1  0.0000000  1.0460000  1
    892    888    877    895     1  0.0000000  0.0000000  3
    895    882    886    896     1  0.0000000  0.6973333  3
    895    877    878    897     1  0.0000000  1.0460000  1
    895    877    878    897     1  0.0000000  0.0000000  3
    897    878    898    899     1  0.0000000  0.6973333  3
    901    902    904    908     1  0.0000000  0.6508444  3
    901    902    922    923     1  0.0000000  1.0460000  1
    901    902    922    923     1  0.0000000  0.6694400  3
    901    912    917    918     1  0.0000000  1.0460000  1
    901    912    917    918     1  0.0000000  0.6694400  3
    901    919    906    909     1  0.0000000  1.6038667  3
    902    904    905    907     1  0.0000000  0.6508444  3
    902    904    911    913     1  0.0000000  1.0460000  1
    902    904    911    913     1  0.0000000  0.6694400  3
    902    901    912    915     1  0.0000000  0.6508444  3
    902    901    912    916     1  0.0000000  0.6508444  3
    903    901    902    904     1  0.0000000  0.6508444  3
    903    901    902    922     1  0.0000000  1.0460000  1
    903    901    902    922     1  0.0000000  0.0000000  3
    903    901    902    921     1  0.0000000  0.6508444  3
    903    901    912    917     1  0.0000000  1.0460000  1
    903    901    912    917     1  0.0000000  0.0000000  3
    903    901    912    915     1  0.0000000  0.6508444  3
    903    901    912    916     1  0.0000000  0.6508444  3
    903    901    919    906     1  0.0000000  1.6038667  3
    904    905    906    909     1  0.0000000  0.6508444  3
    904    905    924    914     1  0.0000000  1.2552000  3
    904    902    922    923     1  0.0000000  1.0460000  1
    904    902    922    923     1  0.0000000  0.6694400  3
    905    906    910    920     1  0.0000000  1.0460000  1
    905    906    910    920     1  0.0000000  0.6694400  3
    905    904    911    913     1  0.0000000  1.0460000  1
    905    904    911    913     1  0.0000000  0.6694400  3
    905    904    902    921     1  0.0000000  0.6508444  3
    906    905    924    914     1  0.0000000  1.2552000  3
    906    905    904    908     1  0.0000000  0.6508444  3
    907    905    906    910     1  0.0000000  1.0460000  1
    907    905    906    910     1  0.0000000  0.0000000  3
    907    905    906    919     1  0.0000000  1.0460000  1
    907    905    906    919     1  0.0000000  0.0000000  3
    907    905    906    909     1  0.0000000  0.6508444  3
    907    905    924    914     1  0.0000000  1.2552000  3
    907    905    904    911     1  0.0000000  1.0460000  1
    907    905    904    911     1  0.0000000  0.0000000  3
    907    905    904    908     1  0.0000000  0.6508444  3
    908    904    905    924     1  0.0000000  0.6508444  3
    908    904    911    913     1  0.0000000  0.6973333  3
    908    904    902    922     1  0.0000000  1.0460000  1
    908    904    902    922     1  0.0000000  0.0000000  3
    908    904    902    921     1  0.0000000  0.6508444  3
    909    906    910    920     1  0.0000000  0.6973333  3
    909    906    905    924     1  0.0000000  0.6508444  3
    911    904    902    921     1  0.0000000  1.0460000  1
    911    904    902    921     1  0.0000000  0.0000000  3
    912    901    902    921     1  0.0000000  0.6508444  3
    915    912    917    918     1  0.0000000  0.6973333  3
    915    912    901    919     1  0.0000000  1.0460000  1
    915    912    901    919     1  0.0000000  0.0000000  3
    916    912    917    918     1  0.0000000  0.6973333  3
    916    912    901    919     1  0.0000000  1.0460000  1
    916    912    901    919     1  0.0000000  0.0000000  3
    919    906    910    920     1  0.0000000  0.6973333  3
    919    901    902    921     1  0.0000000  1.0460000  1
    919    901    902    921     1  0.0000000  0.0000000  3
    921    902    922    923     1  0.0000000  0.6973333  3
    925    927    929    931     1  0.0000000  0.6508444  3
    925    927    929    932     1  0.0000000  0.6508444  3
    926    925    927    929     1  0.0000000  0.0000000  2
    926    925    927    928     1  0.0000000  0.0000000  2
    926    925    927    930     1  0.0000000  0.0000000  2
    928    927    929    933     1  0.0000000  0.6508444  3
    928    927    929    931     1  0.0000000  0.6508444  3
    928    927    929    932     1  0.0000000  0.6508444  3
    929    933    934    943     1  0.0000000  1.2552000  3
    929    933    934    944     1  0.0000000  1.2552000  3
    929    933    935    936     1  0.0000000  1.2552000  3
    929    933    935    938     1  0.0000000  1.2552000  3
    930    927    929    933     1  0.0000000  0.6508444  3
    930    927    929    931     1  0.0000000  0.6508444  3
    930    927    929    932     1  0.0000000  0.6508444  3
    931    929    933    934     1  0.0000000  1.2552000  3
    931    929    933    935     1  0.0000000  1.2552000  3
    932    929    933    934     1  0.0000000  1.2552000  3
    932    929    933    935     1  0.0000000  1.2552000  3
    933    934    945    946     1  0.0000000  0.6508444  3
    933    934    945    947     1  0.0000000  0.6508444  3
    933    935    937    939     1  0.0000000  0.6508444  3
    933    935    937    940     1  0.0000000  0.6508444  3
    934    933    935    936     1  0.0000000  1.2552000  3
    934    933    935    938     1  0.0000000  1.2552000  3
    935    933    934    943     1  0.0000000  1.2552000  3
    935    933    934    944     1  0.0000000  1.2552000  3
    936    935    937    941     1  0.0000000  0.6508444  3
    936    935    937    939     1  0.0000000  0.6508444  3
    936    935    937    940     1  0.0000000  0.6508444  3
    937    941    973    963     1  180.0000771  6.0668000  2
    937    941    973    963     1  180.0000771  1.4644000  4
    938    935    937    941     1  0.0000000  0.6508444  3
    938    935    937    939     1  0.0000000  0.6508444  3
    938    935    937    940     1  0.0000000  0.6508444  3
    939    937    941    942     1  0.0000000  3.3472000  1
    939    937    941    942     1  0.0000000  0.0000000  2
    939    937    941    942     1  180.0000771  0.3347200  3
    939    937    941    973     1  180.0000771  0.0000000  2
    940    937    941    942     1  0.0000000  3.3472000  1
    940    937    941    942     1  0.0000000  0.0000000  2
    940    937    941    942     1  180.0000771  0.3347200  3
    940    937    941    973     1  180.0000771  0.0000000  2
    941    973    954    956     1  0.0000000  1.2552000  3
    942    941    973    963     1  180.0000771  6.0668000  2
    942    941    973    963     1  180.0000771  1.4644000  4
    943    934    945    948     1  0.0000000  0.6508444  3
    943    934    945    946     1  0.0000000  0.6508444  3
    943    934    945    947     1  0.0000000  0.6508444  3
    944    934    945    948     1  0.0000000  0.6508444  3
    944    934    945    946     1  0.0000000  0.6508444  3
    944    934    945    947     1  0.0000000  0.6508444  3
    945    948    997    987     1  180.0000771  6.0668000  2
    945    948    997    987     1  180.0000771  1.4644000  4
    946    945    948    949     1  0.0000000  3.3472000  1
    946    945    948    949     1  0.0000000  0.0000000  2
    946    945    948    949     1  180.0000771  0.3347200  3
    946    945    948    997     1  180.0000771  0.0000000  2
    947    945    948    949     1  0.0000000  3.3472000  1
    947    945    948    949     1  0.0000000  0.0000000  2
    947    945    948    949     1  180.0000771  0.3347200  3
    947    945    948    997     1  180.0000771  0.0000000  2
    948    997    978    980     1  0.0000000  1.2552000  3
    949    948    997    987     1  180.0000771  6.0668000  2
    949    948    997    987     1  180.0000771  1.4644000  4
    950    951    953    957     1  0.0000000  0.6508444  3
    950    951    971    972     1  0.0000000  1.0460000  1
    950    951    971    972     1  0.0000000  0.6694400  3
    950    961    966    967     1  0.0000000  1.0460000  1
    950    961    966    967     1  0.0000000  0.6694400  3
    950    968    955    958     1  0.0000000  1.6038667  3
    951    950    961    964     1  0.0000000  0.6508444  3
    951    950    961    965     1  0.0000000  0.6508444  3
    951    953    954    956     1  0.0000000  0.6508444  3
    951    953    960    962     1  0.0000000  1.0460000  1
    951    953    960    962     1  0.0000000  0.6694400  3
    952    950    951    953     1  0.0000000  0.6508444  3
    952    950    951    971     1  0.0000000  1.0460000  1
    952    950    951    971     1  0.0000000  0.0000000  3
    952    950    951    970     1  0.0000000  0.6508444  3
    952    950    961    966     1  0.0000000  1.0460000  1
    952    950    961    966     1  0.0000000  0.0000000  3
    952    950    961    964     1  0.0000000  0.6508444  3
    952    950    961    965     1  0.0000000  0.6508444  3
    952    950    968    955     1  0.0000000  1.6038667  3
    953    951    971    972     1  0.0000000  1.0460000  1
    953    951    971    972     1  0.0000000  0.6694400  3
    953    954    955    958     1  0.0000000  0.6508444  3
    953    954    973    963     1  0.0000000  1.2552000  3
    954    953    951    970     1  0.0000000  0.6508444  3
    954    953    960    962     1  0.0000000  1.0460000  1
    954    953    960    962     1  0.0000000  0.6694400  3
    954    955    959    969     1  0.0000000  1.0460000  1
    954    955    959    969     1  0.0000000  0.6694400  3
    955    954    953    957     1  0.0000000  0.6508444  3
    955    954    973    963     1  0.0000000  1.2552000  3
    956    954    953    960     1  0.0000000  1.0460000  1
    956    954    953    960     1  0.0000000  0.0000000  3
    956    954    953    957     1  0.0000000  0.6508444  3
    956    954    955    959     1  0.0000000  1.0460000  1
    956    954    955    959     1  0.0000000  0.0000000  3
    956    954    955    968     1  0.0000000  1.0460000  1
    956    954    955    968     1  0.0000000  0.0000000  3
    956    954    955    958     1  0.0000000  0.6508444  3
    956    954    973    963     1  0.0000000  1.2552000  3
    957    953    951    971     1  0.0000000  1.0460000  1
    957    953    951    971     1  0.0000000  0.0000000  3
    957    953    951    970     1  0.0000000  0.6508444  3
    957    953    954    973     1  0.0000000  0.6508444  3
    957    953    960    962     1  0.0000000  0.6973333  3
    958    955    954    973     1  0.0000000  0.6508444  3
    958    955    959    969     1  0.0000000  0.6973333  3
    960    953    951    970     1  0.0000000  1.0460000  1
    960    953    951    970     1  0.0000000  0.0000000  3
    961    950    951    970     1  0.0000000  0.6508444  3
    964    961    950    968     1  0.0000000  1.0460000  1
    964    961    950    968     1  0.0000000  0.0000000  3
    964    961    966    967     1  0.0000000  0.6973333  3
    965    961    950    968     1  0.0000000  1.0460000  1
    965    961    950    968     1  0.0000000  0.0000000  3
    965    961    966    967     1  0.0000000  0.6973333  3
    968    950    951    970     1  0.0000000  1.0460000  1
    968    950    951    970     1  0.0000000  0.0000000  3
    968    955    959    969     1  0.0000000  0.6973333  3
    970    951    971    972     1  0.0000000  0.6973333  3
    974    975    977    981     1  0.0000000  0.6508444  3
    974    975    995    996     1  0.0000000  1.0460000  1
    974    975    995    996     1  0.0000000  0.6694400  3
    974    985    990    991     1  0.0000000  1.0460000  1
    974    985    990    991     1  0.0000000  0.6694400  3
    974    992    979    982     1  0.0000000  1.6038667  3
    975    974    985    988     1  0.0000000  0.6508444  3
    975    974    985    989     1  0.0000000  0.6508444  3
    975    977    978    980     1  0.0000000  0.6508444  3
    975    977    984    986     1  0.0000000  1.0460000  1
    975    977    984    986     1  0.0000000  0.6694400  3
    976    974    975    977     1  0.0000000  0.6508444  3
    976    974    975    995     1  0.0000000  1.0460000  1
    976    974    975    995     1  0.0000000  0.0000000  3
    976    974    975    994     1  0.0000000  0.6508444  3
    976    974    985    990     1  0.0000000  1.0460000  1
    976    974    985    990     1  0.0000000  0.0000000  3
    976    974    985    988     1  0.0000000  0.6508444  3
    976    974    985    989     1  0.0000000  0.6508444  3
    976    974    992    979     1  0.0000000  1.6038667  3
    977    975    995    996     1  0.0000000  1.0460000  1
    977    975    995    996     1  0.0000000  0.6694400  3
    977    978    979    982     1  0.0000000  0.6508444  3
    977    978    997    987     1  0.0000000  1.2552000  3
    978    977    975    994     1  0.0000000  0.6508444  3
    978    977    984    986     1  0.0000000  1.0460000  1
    978    977    984    986     1  0.0000000  0.6694400  3
    978    979    983    993     1  0.0000000  1.0460000  1
    978    979    983    993     1  0.0000000  0.6694400  3
    979    978    977    981     1  0.0000000  0.6508444  3
    979    978    997    987     1  0.0000000  1.2552000  3
    980    978    977    984     1  0.0000000  1.0460000  1
    980    978    977    984     1  0.0000000  0.0000000  3
    980    978    977    981     1  0.0000000  0.6508444  3
    980    978    979    983     1  0.0000000  1.0460000  1
    980    978    979    983     1  0.0000000  0.0000000  3
    980    978    979    992     1  0.0000000  1.0460000  1
    980    978    979    992     1  0.0000000  0.0000000  3
    980    978    979    982     1  0.0000000  0.6508444  3
    980    978    997    987     1  0.0000000  1.2552000  3
    981    977    975    995     1  0.0000000  1.0460000  1
    981    977    975    995     1  0.0000000  0.0000000  3
    981    977    975    994     1  0.0000000  0.6508444  3
    981    977    978    997     1  0.0000000  0.6508444  3
    981    977    984    986     1  0.0000000  0.6973333  3
    982    979    978    997     1  0.0000000  0.6508444  3
    982    979    983    993     1  0.0000000  0.6973333  3
    984    977    975    994     1  0.0000000  1.0460000  1
    984    977    975    994     1  0.0000000  0.0000000  3
    985    974    975    994     1  0.0000000  0.6508444  3
    988    985    974    992     1  0.0000000  1.0460000  1
    988    985    974    992     1  0.0000000  0.0000000  3
    988    985    990    991     1  0.0000000  0.6973333  3
    989    985    974    992     1  0.0000000  1.0460000  1
    989    985    974    992     1  0.0000000  0.0000000  3
    989    985    990    991     1  0.0000000  0.6973333  3
    992    974    975    994     1  0.0000000  1.0460000  1
    992    974    975    994     1  0.0000000  0.0000000  3
    992    979    983    993     1  0.0000000  0.6973333  3
    994    975    995    996     1  0.0000000  0.6973333  3
    998   1000   1002   1004     1  0.0000000  0.6508444  3
    998   1000   1002   1005     1  0.0000000  0.6508444  3
    999    998   1000   1002     1  0.0000000  0.0000000  2
    999    998   1000   1001     1  0.0000000  0.0000000  2
    999    998   1000   1003     1  0.0000000  0.0000000  2
   1001   1000   1002   1006     1  0.0000000  0.6508444  3
   1001   1000   1002   1004     1  0.0000000  0.6508444  3
   1001   1000   1002   1005     1  0.0000000  0.6508444  3
   1002   1006   1007   1016     1  0.0000000  1.2552000  3
   1002   1006   1007   1017     1  0.0000000  1.2552000  3
   1002   1006   1008   1009     1  0.0000000  1.2552000  3
   1002   1006   1008   1011     1  0.0000000  1.2552000  3
   1003   1000   1002   1006     1  0.0000000  0.6508444  3
   1003   1000   1002   1004     1  0.0000000  0.6508444  3
   1003   1000   1002   1005     1  0.0000000  0.6508444  3
   1004   1002   1006   1007     1  0.0000000  1.2552000  3
   1004   1002   1006   1008     1  0.0000000  1.2552000  3
   1005   1002   1006   1007     1  0.0000000  1.2552000  3
   1005   1002   1006   1008     1  0.0000000  1.2552000  3
   1006   1007   1018   1019     1  0.0000000  0.6508444  3
   1006   1007   1018   1020     1  0.0000000  0.6508444  3
   1006   1008   1010   1012     1  0.0000000  0.6508444  3
   1006   1008   1010   1013     1  0.0000000  0.6508444  3
   1007   1006   1008   1009     1  0.0000000  1.2552000  3
   1007   1006   1008   1011     1  0.0000000  1.2552000  3
   1008   1006   1007   1016     1  0.0000000  1.2552000  3
   1008   1006   1007   1017     1  0.0000000  1.2552000  3
   1009   1008   1010   1014     1  0.0000000  0.6508444  3
   1009   1008   1010   1012     1  0.0000000  0.6508444  3
   1009   1008   1010   1013     1  0.0000000  0.6508444  3
   1010   1014   1046   1036     1  180.0000771  6.0668000  2
   1010   1014   1046   1036     1  180.0000771  1.4644000  4
   1011   1008   1010   1014     1  0.0000000  0.6508444  3
   1011   1008   1010   1012     1  0.0000000  0.6508444  3
   1011   1008   1010   1013     1  0.0000000  0.6508444  3
   1012   1010   1014   1015     1  0.0000000  3.3472000  1
   1012   1010   1014   1015     1  0.0000000  0.0000000  2
   1012   1010   1014   1015     1  180.0000771  0.3347200  3
   1012   1010   1014   1046     1  180.0000771  0.0000000  2
   1013   1010   1014   1015     1  0.0000000  3.3472000  1
   1013   1010   1014   1015     1  0.0000000  0.0000000  2
   1013   1010   1014   1015     1  180.0000771  0.3347200  3
   1013   1010   1014   1046     1  180.0000771  0.0000000  2
   1014   1046   1027   1029     1  0.0000000  1.2552000  3
   1015   1014   1046   1036     1  180.0000771  6.0668000  2
   1015   1014   1046   1036     1  180.0000771  1.4644000  4
   1016   1007   1018   1021     1  0.0000000  0.6508444  3
   1016   1007   1018   1019     1  0.0000000  0.6508444  3
   1016   1007   1018   1020     1  0.0000000  0.6508444  3
   1017   1007   1018   1021     1  0.0000000  0.6508444  3
   1017   1007   1018   1019     1  0.0000000  0.6508444  3
   1017   1007   1018   1020     1  0.0000000  0.6508444  3
   1018   1021   1070   1060     1  180.0000771  6.0668000  2
   1018   1021   1070   1060     1  180.0000771  1.4644000  4
   1019   1018   1021   1022     1  0.0000000  3.3472000  1
   1019   1018   1021   1022     1  0.0000000  0.0000000  2
   1019   1018   1021   1022     1  180.0000771  0.3347200  3
   1019   1018   1021   1070     1  180.0000771  0.0000000  2
   1020   1018   1021   1022     1  0.0000000  3.3472000  1
   1020   1018   1021   1022     1  0.0000000  0.0000000  2
   1020   1018   1021   1022     1  180.0000771  0.3347200  3
   1020   1018   1021   1070     1  180.0000771  0.0000000  2
   1021   1070   1051   1053     1  0.0000000  1.2552000  3
   1022   1021   1070   1060     1  180.0000771  6.0668000  2
   1022   1021   1070   1060     1  180.0000771  1.4644000  4
   1023   1024   1026   1030     1  0.0000000  0.6508444  3
   1023   1024   1044   1045     1  0.0000000  1.0460000  1
   1023   1024   1044   1045     1  0.0000000  0.6694400  3
   1023   1034   1039   1040     1  0.0000000  1.0460000  1
   1023   1034   1039   1040     1  0.0000000  0.6694400  3
   1023   1041   1028   1031     1  0.0000000  1.6038667  3
   1024   1026   1027   1029     1  0.0000000  0.6508444  3
   1024   1026   1033   1035     1  0.0000000  1.0460000  1
   1024   1026   1033   1035     1  0.0000000  0.6694400  3
   1024   1023   1034   1037     1  0.0000000  0.6508444  3
   1024   1023   1034   1038     1  0.0000000  0.6508444  3
   1025   1023   1024   1026     1  0.0000000  0.6508444  3
   1025   1023   1024   1044     1  0.0000000  1.0460000  1
   1025   1023   1024   1044     1  0.0000000  0.0000000  3
   1025   1023   1024   1043     1  0.0000000  0.6508444  3
   1025   1023   1034   1039     1  0.0000000  1.0460000  1
   1025   1023   1034   1039     1  0.0000000  0.0000000  3
   1025   1023   1034   1037     1  0.0000000  0.6508444  3
   1025   1023   1034   1038     1  0.0000000  0.6508444  3
   1025   1023   1041   1028     1  0.0000000  1.6038667  3
   1026   1027   1028   1031     1  0.0000000  0.6508444  3
   1026   1027   1046   1036     1  0.0000000  1.2552000  3
   1026   1024   1044   1045     1  0.0000000  1.0460000  1
   1026   1024   1044   1045     1  0.0000000  0.6694400  3
   1027   1028   1032   1042     1  0.0000000  1.0460000  1
   1027   1028   1032   1042     1  0.0000000  0.6694400  3
   1027   1026   1033   1035     1  0.0000000  1.0460000  1
   1027   1026   1033   1035     1  0.0000000  0.6694400  3
   1027   1026   1024   1043     1  0.0000000  0.6508444  3
   1028   1027   1046   1036     1  0.0000000  1.2552000  3
   1028   1027   1026   1030     1  0.0000000  0.6508444  3
   1029   1027   1028   1032     1  0.0000000  1.0460000  1
   1029   1027   1028   1032     1  0.0000000  0.0000000  3
   1029   1027   1028   1041     1  0.0000000  1.0460000  1
   1029   1027   1028   1041     1  0.0000000  0.0000000  3
   1029   1027   1028   1031     1  0.0000000  0.6508444  3
   1029   1027   1046   1036     1  0.0000000  1.2552000  3
   1029   1027   1026   1033     1  0.0000000  1.0460000  1
   1029   1027   1026   1033     1  0.0000000  0.0000000  3
   1029   1027   1026   1030     1  0.0000000  0.6508444  3
   1030   1026   1027   1046     1  0.0000000  0.6508444  3
   1030   1026   1033   1035     1  0.0000000  0.6973333  3
   1030   1026   1024   1044     1  0.0000000  1.0460000  1
   1030   1026   1024   1044     1  0.0000000  0.0000000  3
   1030   1026   1024   1043     1  0.0000000  0.6508444  3
   1031   1028   1032   1042     1  0.0000000  0.6973333  3
   1031   1028   1027   1046     1  0.0000000  0.6508444  3
   1033   1026   1024   1043     1  0.0000000  1.0460000  1
   1033   1026   1024   1043     1  0.0000000  0.0000000  3
   1034   1023   1024   1043     1  0.0000000  0.6508444  3
   1037   1034   1039   1040     1  0.0000000  0.6973333  3
   1037   1034   1023   1041     1  0.0000000  1.0460000  1
   1037   1034   1023   1041     1  0.0000000  0.0000000  3
   1038   1034   1039   1040     1  0.0000000  0.6973333  3
   1038   1034   1023   1041     1  0.0000000  1.0460000  1
   1038   1034   1023   1041     1  0.0000000  0.0000000  3
   1041   1028   1032   1042     1  0.0000000  0.6973333  3
   1041   1023   1024   1043     1  0.0000000  1.0460000  1
   1041   1023   1024   1043     1  0.0000000  0.0000000  3
   1043   1024   1044   1045     1  0.0000000  0.6973333  3
   1047   1048   1050   1054     1  0.0000000  0.6508444  3
   1047   1048   1068   1069     1  0.0000000  1.0460000  1
   1047   1048   1068   1069     1  0.0000000  0.6694400  3
   1047   1058   1063   1064     1  0.0000000  1.0460000  1
   1047   1058   1063   1064     1  0.0000000  0.6694400  3
   1047   1065   1052   1055     1  0.0000000  1.6038667  3
   1048   1050   1051   1053     1  0.0000000  0.6508444  3
   1048   1050   1057   1059     1  0.0000000  1.0460000  1
   1048   1050   1057   1059     1  0.0000000  0.6694400  3
   1048   1047   1058   1061     1  0.0000000  0.6508444  3
   1048   1047   1058   1062     1  0.0000000  0.6508444  3
   1049   1047   1048   1050     1  0.0000000  0.6508444  3
   1049   1047   1048   1068     1  0.0000000  1.0460000  1
   1049   1047   1048   1068     1  0.0000000  0.0000000  3
   1049   1047   1048   1067     1  0.0000000  0.6508444  3
   1049   1047   1058   1063     1  0.0000000  1.0460000  1
   1049   1047   1058   1063     1  0.0000000  0.0000000  3
   1049   1047   1058   1061     1  0.0000000  0.6508444  3
   1049   1047   1058   1062     1  0.0000000  0.6508444  3
   1049   1047   1065   1052     1  0.0000000  1.6038667  3
   1050   1051   1052   1055     1  0.0000000  0.6508444  3
   1050   1051   1070   1060     1  0.0000000  1.2552000  3
   1050   1048   1068   1069     1  0.0000000  1.0460000  1
   1050   1048   1068   1069     1  0.0000000  0.6694400  3
   1051   1052   1056   1066     1  0.0000000  1.0460000  1
   1051   1052   1056   1066     1  0.0000000  0.6694400  3
   1051   1050   1057   1059     1  0.0000000  1.0460000  1
   1051   1050   1057   1059     1  0.0000000  0.6694400  3
   1051   1050   1048   1067     1  0.0000000  0.6508444  3
   1052   1051   1070   1060     1  0.0000000  1.2552000  3
   1052   1051   1050   1054     1  0.0000000  0.6508444  3
   1053   1051   1052   1056     1  0.0000000  1.0460000  1
   1053   1051   1052   1056     1  0.0000000  0.0000000  3
   1053   1051   1052   1065     1  0.0000000  1.0460000  1
   1053   1051   1052   1065     1  0.0000000  0.0000000  3
   1053   1051   1052   1055     1  0.0000000  0.6508444  3
   1053   1051   1070   1060     1  0.0000000  1.2552000  3
   1053   1051   1050   1057     1  0.0000000  1.0460000  1
   1053   1051   1050   1057     1  0.0000000  0.0000000  3
   1053   1051   1050   1054     1  0.0000000  0.6508444  3
   1054   1050   1051   1070     1  0.0000000  0.6508444  3
   1054   1050   1057   1059     1  0.0000000  0.6973333  3
   1054   1050   1048   1068     1  0.0000000  1.0460000  1
   1054   1050   1048   1068     1  0.0000000  0.0000000  3
   1054   1050   1048   1067     1  0.0000000  0.6508444  3
   1055   1052   1056   1066     1  0.0000000  0.6973333  3
   1055   1052   1051   1070     1  0.0000000  0.6508444  3
   1057   1050   1048   1067     1  0.0000000  1.0460000  1
   1057   1050   1048   1067     1  0.0000000  0.0000000  3
   1058   1047   1048   1067     1  0.0000000  0.6508444  3
   1061   1058   1063   1064     1  0.0000000  0.6973333  3
   1061   1058   1047   1065     1  0.0000000  1.0460000  1
   1061   1058   1047   1065     1  0.0000000  0.0000000  3
   1062   1058   1063   1064     1  0.0000000  0.6973333  3
   1062   1058   1047   1065     1  0.0000000  1.0460000  1
   1062   1058   1047   1065     1  0.0000000  0.0000000  3
   1065   1052   1056   1066     1  0.0000000  0.6973333  3
   1065   1047   1048   1067     1  0.0000000  1.0460000  1
   1065   1047   1048   1067     1  0.0000000  0.0000000  3
   1067   1048   1068   1069     1  0.0000000  0.6973333  3
   1071   1073   1075   1077     1  0.0000000  0.6508444  3
   1071   1073   1075   1078     1  0.0000000  0.6508444  3
   1072   1071   1073   1075     1  0.0000000  0.0000000  2
   1072   1071   1073   1074     1  0.0000000  0.0000000  2
   1072   1071   1073   1076     1  0.0000000  0.0000000  2
   1074   1073   1075   1079     1  0.0000000  0.6508444  3
   1074   1073   1075   1077     1  0.0000000  0.6508444  3
   1074   1073   1075   1078     1  0.0000000  0.6508444  3
   1075   1079   1080   1089     1  0.0000000  1.2552000  3
   1075   1079   1080   1090     1  0.0000000  1.2552000  3
   1075   1079   1081   1082     1  0.0000000  1.2552000  3
   1075   1079   1081   1084     1  0.0000000  1.2552000  3
   1076   1073   1075   1079     1  0.0000000  0.6508444  3
   1076   1073   1075   1077     1  0.0000000  0.6508444  3
   1076   1073   1075   1078     1  0.0000000  0.6508444  3
   1077   1075   1079   1080     1  0.0000000  1.2552000  3
   1077   1075   1079   1081     1  0.0000000  1.2552000  3
   1078   1075   1079   1080     1  0.0000000  1.2552000  3
   1078   1075   1079   1081     1  0.0000000  1.2552000  3
   1079   1080   1091   1092     1  0.0000000  0.6508444  3
   1079   1080   1091   1093     1  0.0000000  0.6508444  3
   1079   1081   1083   1085     1  0.0000000  0.6508444  3
   1079   1081   1083   1086     1  0.0000000  0.6508444  3
   1080   1079   1081   1082     1  0.0000000  1.2552000  3
   1080   1079   1081   1084     1  0.0000000  1.2552000  3
   1081   1079   1080   1089     1  0.0000000  1.2552000  3
   1081   1079   1080   1090     1  0.0000000  1.2552000  3
   1082   1081   1083   1087     1  0.0000000  0.6508444  3
   1082   1081   1083   1085     1  0.0000000  0.6508444  3
   1082   1081   1083   1086     1  0.0000000  0.6508444  3
   1083   1087   1119   1109     1  180.0000771  6.0668000  2
   1083   1087   1119   1109     1  180.0000771  1.4644000  4
   1084   1081   1083   1087     1  0.0000000  0.6508444  3
   1084   1081   1083   1085     1  0.0000000  0.6508444  3
   1084   1081   1083   1086     1  0.0000000  0.6508444  3
   1085   1083   1087   1088     1  0.0000000  3.3472000  1
   1085   1083   1087   1088     1  0.0000000  0.0000000  2
   1085   1083   1087   1088     1  180.0000771  0.3347200  3
   1085   1083   1087   1119     1  180.0000771  0.0000000  2
   1086   1083   1087   1088     1  0.0000000  3.3472000  1
   1086   1083   1087   1088     1  0.0000000  0.0000000  2
   1086   1083   1087   1088     1  180.0000771  0.3347200  3
   1086   1083   1087   1119     1  180.0000771  0.0000000  2
   1087   1119   1100   1102     1  0.0000000  1.2552000  3
   1088   1087   1119   1109     1  180.0000771  6.0668000  2
   1088   1087   1119   1109     1  180.0000771  1.4644000  4
   1089   1080   1091   1094     1  0.0000000  0.6508444  3
   1089   1080   1091   1092     1  0.0000000  0.6508444  3
   1089   1080   1091   1093     1  0.0000000  0.6508444  3
   1090   1080   1091   1094     1  0.0000000  0.6508444  3
   1090   1080   1091   1092     1  0.0000000  0.6508444  3
   1090   1080   1091   1093     1  0.0000000  0.6508444  3
   1091   1094   1143   1133     1  180.0000771  6.0668000  2
   1091   1094   1143   1133     1  180.0000771  1.4644000  4
   1092   1091   1094   1095     1  0.0000000  3.3472000  1
   1092   1091   1094   1095     1  0.0000000  0.0000000  2
   1092   1091   1094   1095     1  180.0000771  0.3347200  3
   1092   1091   1094   1143     1  180.0000771  0.0000000  2
   1093   1091   1094   1095     1  0.0000000  3.3472000  1
   1093   1091   1094   1095     1  0.0000000  0.0000000  2
   1093   1091   1094   1095     1  180.0000771  0.3347200  3
   1093   1091   1094   1143     1  180.0000771  0.0000000  2
   1094   1143   1124   1126     1  0.0000000  1.2552000  3
   1095   1094   1143   1133     1  180.0000771  6.0668000  2
   1095   1094   1143   1133     1  180.0000771  1.4644000  4
   1096   1097   1099   1103     1  0.0000000  0.6508444  3
   1096   1097   1117   1118     1  0.0000000  1.0460000  1
   1096   1097   1117   1118     1  0.0000000  0.6694400  3
   1096   1107   1112   1113     1  0.0000000  1.0460000  1
   1096   1107   1112   1113     1  0.0000000  0.6694400  3
   1096   1114   1101   1104     1  0.0000000  1.6038667  3
   1097   1096   1107   1110     1  0.0000000  0.6508444  3
   1097   1096   1107   1111     1  0.0000000  0.6508444  3
   1097   1099   1100   1102     1  0.0000000  0.6508444  3
   1097   1099   1106   1108     1  0.0000000  1.0460000  1
   1097   1099   1106   1108     1  0.0000000  0.6694400  3
   1098   1096   1097   1099     1  0.0000000  0.6508444  3
   1098   1096   1097   1117     1  0.0000000  1.0460000  1
   1098   1096   1097   1117     1  0.0000000  0.0000000  3
   1098   1096   1097   1116     1  0.0000000  0.6508444  3
   1098   1096   1107   1112     1  0.0000000  1.0460000  1
   1098   1096   1107   1112     1  0.0000000  0.0000000  3
   1098   1096   1107   1110     1  0.0000000  0.6508444  3
   1098   1096   1107   1111     1  0.0000000  0.6508444  3
   1098   1096   1114   1101     1  0.0000000  1.6038667  3
   1099   1097   1117   1118     1  0.0000000  1.0460000  1
   1099   1097   1117   1118     1  0.0000000  0.6694400  3
   1099   1100   1101   1104     1  0.0000000  0.6508444  3
   1099   1100   1119   1109     1  0.0000000  1.2552000  3
   1100   1099   1097   1116     1  0.0000000  0.6508444  3
   1100   1099   1106   1108     1  0.0000000  1.0460000  1
   1100   1099   1106   1108     1  0.0000000  0.6694400  3
   1100   1101   1105   1115     1  0.0000000  1.0460000  1
   1100   1101   1105   1115     1  0.0000000  0.6694400  3
   1101   1100   1099   1103     1  0.0000000  0.6508444  3
   1101   1100   1119   1109     1  0.0000000  1.2552000  3
   1102   1100   1099   1106     1  0.0000000  1.0460000  1
   1102   1100   1099   1106     1  0.0000000  0.0000000  3
   1102   1100   1099   1103     1  0.0000000  0.6508444  3
   1102   1100   1101   1105     1  0.0000000  1.0460000  1
   1102   1100   1101   1105     1  0.0000000  0.0000000  3
   1102   1100   1101   1114     1  0.0000000  1.0460000  1
   1102   1100   1101   1114     1  0.0000000  0.0000000  3
   1102   1100   1101   1104     1  0.0000000  0.6508444  3
   1102   1100   1119   1109     1  0.0000000  1.2552000  3
   1103   1099   1097   1117     1  0.0000000  1.0460000  1
   1103   1099   1097   1117     1  0.0000000  0.0000000  3
   1103   1099   1097   1116     1  0.0000000  0.6508444  3
   1103   1099   1100   1119     1  0.0000000  0.6508444  3
   1103   1099   1106   1108     1  0.0000000  0.6973333  3
   1104   1101   1100   1119     1  0.0000000  0.6508444  3
   1104   1101   1105   1115     1  0.0000000  0.6973333  3
   1106   1099   1097   1116     1  0.0000000  1.0460000  1
   1106   1099   1097   1116     1  0.0000000  0.0000000  3
   1107   1096   1097   1116     1  0.0000000  0.6508444  3
   1110   1107   1096   1114     1  0.0000000  1.0460000  1
   1110   1107   1096   1114     1  0.0000000  0.0000000  3
   1110   1107   1112   1113     1  0.0000000  0.6973333  3
   1111   1107   1096   1114     1  0.0000000  1.0460000  1
   1111   1107   1096   1114     1  0.0000000  0.0000000  3
   1111   1107   1112   1113     1  0.0000000  0.6973333  3
   1114   1096   1097   1116     1  0.0000000  1.0460000  1
   1114   1096   1097   1116     1  0.0000000  0.0000000  3
   1114   1101   1105   1115     1  0.0000000  0.6973333  3
   1116   1097   1117   1118     1  0.0000000  0.6973333  3
   1120   1121   1123   1127     1  0.0000000  0.6508444  3
   1120   1121   1141   1142     1  0.0000000  1.0460000  1
   1120   1121   1141   1142     1  0.0000000  0.6694400  3
   1120   1131   1136   1137     1  0.0000000  1.0460000  1
   1120   1131   1136   1137     1  0.0000000  0.6694400  3
   1120   1138   1125   1128     1  0.0000000  1.6038667  3
   1121   1120   1131   1134     1  0.0000000  0.6508444  3
   1121   1120   1131   1135     1  0.0000000  0.6508444  3
   1121   1123   1124   1126     1  0.0000000  0.6508444  3
   1121   1123   1130   1132     1  0.0000000  1.0460000  1
   1121   1123   1130   1132     1  0.0000000  0.6694400  3
   1122   1120   1121   1123     1  0.0000000  0.6508444  3
   1122   1120   1121   1141     1  0.0000000  1.0460000  1
   1122   1120   1121   1141     1  0.0000000  0.0000000  3
   1122   1120   1121   1140     1  0.0000000  0.6508444  3
   1122   1120   1131   1136     1  0.0000000  1.0460000  1
   1122   1120   1131   1136     1  0.0000000  0.0000000  3
   1122   1120   1131   1134     1  0.0000000  0.6508444  3
   1122   1120   1131   1135     1  0.0000000  0.6508444  3
   1122   1120   1138   1125     1  0.0000000  1.6038667  3
   1123   1121   1141   1142     1  0.0000000  1.0460000  1
   1123   1121   1141   1142     1  0.0000000  0.6694400  3
   1123   1124   1125   1128     1  0.0000000  0.6508444  3
   1123   1124   1143   1133     1  0.0000000  1.2552000  3
   1124   1123   1121   1140     1  0.0000000  0.6508444  3
   1124   1123   1130   1132     1  0.0000000  1.0460000  1
   1124   1123   1130   1132     1  0.0000000  0.6694400  3
   1124   1125   1129   1139     1  0.0000000  1.0460000  1
   1124   1125   1129   1139     1  0.0000000  0.6694400  3
   1125   1124   1123   1127     1  0.0000000  0.6508444  3
   1125   1124   1143   1133     1  0.0000000  1.2552000  3
   1126   1124   1123   1130     1  0.0000000  1.0460000  1
   1126   1124   1123   1130     1  0.0000000  0.0000000  3
   1126   1124   1123   1127     1  0.0000000  0.6508444  3
   1126   1124   1125   1129     1  0.0000000  1.0460000  1
   1126   1124   1125   1129     1  0.0000000  0.0000000  3
   1126   1124   1125   1138     1  0.0000000  1.0460000  1
   1126   1124   1125   1138     1  0.0000000  0.0000000  3
   1126   1124   1125   1128     1  0.0000000  0.6508444  3
   1126   1124   1143   1133     1  0.0000000  1.2552000  3
   1127   1123   1121   1141     1  0.0000000  1.0460000  1
   1127   1123   1121   1141     1  0.0000000  0.0000000  3
   1127   1123   1121   1140     1  0.0000000  0.6508444  3
   1127   1123   1124   1143     1  0.0000000  0.6508444  3
   1127   1123   1130   1132     1  0.0000000  0.6973333  3
   1128   1125   1124   1143     1  0.0000000  0.6508444  3
   1128   1125   1129   1139     1  0.0000000  0.6973333  3
   1130   1123   1121   1140     1  0.0000000  1.0460000  1
   1130   1123   1121   1140     1  0.0000000  0.0000000  3
   1131   1120   1121   1140     1  0.0000000  0.6508444  3
   1134   1131   1120   1138     1  0.0000000  1.0460000  1
   1134   1131   1120   1138     1  0.0000000  0.0000000  3
   1134   1131   1136   1137     1  0.0000000  0.6973333  3
   1135   1131   1120   1138     1  0.0000000  1.0460000  1
   1135   1131   1120   1138     1  0.0000000  0.0000000  3
   1135   1131   1136   1137     1  0.0000000  0.6973333  3
   1138   1120   1121   1140     1  0.0000000  1.0460000  1
   1138   1120   1121   1140     1  0.0000000  0.0000000  3
   1138   1125   1129   1139     1  0.0000000  0.6973333  3
   1140   1121   1141   1142     1  0.0000000  0.6973333  3
   1144   1146   1148   1150     1  0.0000000  0.6508444  3
   1144   1146   1148   1151     1  0.0000000  0.6508444  3
   1145   1144   1146   1148     1  0.0000000  0.0000000  2
   1145   1144   1146   1147     1  0.0000000  0.0000000  2
   1145   1144   1146   1149     1  0.0000000  0.0000000  2
   1147   1146   1148   1152     1  0.0000000  0.6508444  3
   1147   1146   1148   1150     1  0.0000000  0.6508444  3
   1147   1146   1148   1151     1  0.0000000  0.6508444  3
   1148   1152   1153   1162     1  0.0000000  1.2552000  3
   1148   1152   1153   1163     1  0.0000000  1.2552000  3
   1148   1152   1154   1155     1  0.0000000  1.2552000  3
   1148   1152   1154   1157     1  0.0000000  1.2552000  3
   1149   1146   1148   1152     1  0.0000000  0.6508444  3
   1149   1146   1148   1150     1  0.0000000  0.6508444  3
   1149   1146   1148   1151     1  0.0000000  0.6508444  3
   1150   1148   1152   1153     1  0.0000000  1.2552000  3
   1150   1148   1152   1154     1  0.0000000  1.2552000  3
   1151   1148   1152   1153     1  0.0000000  1.2552000  3
   1151   1148   1152   1154     1  0.0000000  1.2552000  3
   1152   1153   1164   1165     1  0.0000000  0.6508444  3
   1152   1153   1164   1166     1  0.0000000  0.6508444  3
   1152   1154   1156   1158     1  0.0000000  0.6508444  3
   1152   1154   1156   1159     1  0.0000000  0.6508444  3
   1153   1152   1154   1155     1  0.0000000  1.2552000  3
   1153   1152   1154   1157     1  0.0000000  1.2552000  3
   1154   1152   1153   1162     1  0.0000000  1.2552000  3
   1154   1152   1153   1163     1  0.0000000  1.2552000  3
   1155   1154   1156   1160     1  0.0000000  0.6508444  3
   1155   1154   1156   1158     1  0.0000000  0.6508444  3
   1155   1154   1156   1159     1  0.0000000  0.6508444  3
   1156   1160   1192   1182     1  180.0000771  6.0668000  2
   1156   1160   1192   1182     1  180.0000771  1.4644000  4
   1157   1154   1156   1160     1  0.0000000  0.6508444  3
   1157   1154   1156   1158     1  0.0000000  0.6508444  3
   1157   1154   1156   1159     1  0.0000000  0.6508444  3
   1158   1156   1160   1161     1  0.0000000  3.3472000  1
   1158   1156   1160   1161     1  0.0000000  0.0000000  2
   1158   1156   1160   1161     1  180.0000771  0.3347200  3
   1158   1156   1160   1192     1  180.0000771  0.0000000  2
   1159   1156   1160   1161     1  0.0000000  3.3472000  1
   1159   1156   1160   1161     1  0.0000000  0.0000000  2
   1159   1156   1160   1161     1  180.0000771  0.3347200  3
   1159   1156   1160   1192     1  180.0000771  0.0000000  2
   1160   1192   1173   1175     1  0.0000000  1.2552000  3
   1161   1160   1192   1182     1  180.0000771  6.0668000  2
   1161   1160   1192   1182     1  180.0000771  1.4644000  4
   1162   1153   1164   1167     1  0.0000000  0.6508444  3
   1162   1153   1164   1165     1  0.0000000  0.6508444  3
   1162   1153   1164   1166     1  0.0000000  0.6508444  3
   1163   1153   1164   1167     1  0.0000000  0.6508444  3
   1163   1153   1164   1165     1  0.0000000  0.6508444  3
   1163   1153   1164   1166     1  0.0000000  0.6508444  3
   1164   1167   1216   1206     1  180.0000771  6.0668000  2
   1164   1167   1216   1206     1  180.0000771  1.4644000  4
   1165   1164   1167   1168     1  0.0000000  3.3472000  1
   1165   1164   1167   1168     1  0.0000000  0.0000000  2
   1165   1164   1167   1168     1  180.0000771  0.3347200  3
   1165   1164   1167   1216     1  180.0000771  0.0000000  2
   1166   1164   1167   1168     1  0.0000000  3.3472000  1
   1166   1164   1167   1168     1  0.0000000  0.0000000  2
   1166   1164   1167   1168     1  180.0000771  0.3347200  3
   1166   1164   1167   1216     1  180.0000771  0.0000000  2
   1167   1216   1197   1199     1  0.0000000  1.2552000  3
   1168   1167   1216   1206     1  180.0000771  6.0668000  2
   1168   1167   1216   1206     1  180.0000771  1.4644000  4
   1169   1170   1172   1176     1  0.0000000  0.6508444  3
   1169   1170   1190   1191     1  0.0000000  1.0460000  1
   1169   1170   1190   1191     1  0.0000000  0.6694400  3
   1169   1180   1185   1186     1  0.0000000  1.0460000  1
   1169   1180   1185   1186     1  0.0000000  0.6694400  3
   1169   1187   1174   1177     1  0.0000000  1.6038667  3
   1170   1172   1173   1175     1  0.0000000  0.6508444  3
   1170   1172   1179   1181     1  0.0000000  1.0460000  1
   1170   1172   1179   1181     1  0.0000000  0.6694400  3
   1170   1169   1180   1183     1  0.0000000  0.6508444  3
   1170   1169   1180   1184     1  0.0000000  0.6508444  3
   1171   1169   1170   1172     1  0.0000000  0.6508444  3
   1171   1169   1170   1190     1  0.0000000  1.0460000  1
   1171   1169   1170   1190     1  0.0000000  0.0000000  3
   1171   1169   1170   1189     1  0.0000000  0.6508444  3
   1171   1169   1180   1185     1  0.0000000  1.0460000  1
   1171   1169   1180   1185     1  0.0000000  0.0000000  3
   1171   1169   1180   1183     1  0.0000000  0.6508444  3
   1171   1169   1180   1184     1  0.0000000  0.6508444  3
   1171   1169   1187   1174     1  0.0000000  1.6038667  3
   1172   1173   1174   1177     1  0.0000000  0.6508444  3
   1172   1173   1192   1182     1  0.0000000  1.2552000  3
   1172   1170   1190   1191     1  0.0000000  1.0460000  1
   1172   1170   1190   1191     1  0.0000000  0.6694400  3
   1173   1174   1178   1188     1  0.0000000  1.0460000  1
   1173   1174   1178   1188     1  0.0000000  0.6694400  3
   1173   1172   1179   1181     1  0.0000000  1.0460000  1
   1173   1172   1179   1181     1  0.0000000  0.6694400  3
   1173   1172   1170   1189     1  0.0000000  0.6508444  3
   1174   1173   1192   1182     1  0.0000000  1.2552000  3
   1174   1173   1172   1176     1  0.0000000  0.6508444  3
   1175   1173   1174   1178     1  0.0000000  1.0460000  1
   1175   1173   1174   1178     1  0.0000000  0.0000000  3
   1175   1173   1174   1187     1  0.0000000  1.0460000  1
   1175   1173   1174   1187     1  0.0000000  0.0000000  3
   1175   1173   1174   1177     1  0.0000000  0.6508444  3
   1175   1173   1192   1182     1  0.0000000  1.2552000  3
   1175   1173   1172   1179     1  0.0000000  1.0460000  1
   1175   1173   1172   1179     1  0.0000000  0.0000000  3
   1175   1173   1172   1176     1  0.0000000  0.6508444  3
   1176   1172   1173   1192     1  0.0000000  0.6508444  3
   1176   1172   1179   1181     1  0.0000000  0.6973333  3
   1176   1172   1170   1190     1  0.0000000  1.0460000  1
   1176   1172   1170   1190     1  0.0000000  0.0000000  3
   1176   1172   1170   1189     1  0.0000000  0.6508444  3
   1177   1174   1178   1188     1  0.0000000  0.6973333  3
   1177   1174   1173   1192     1  0.0000000  0.6508444  3
   1179   1172   1170   1189     1  0.0000000  1.0460000  1
   1179   1172   1170   1189     1  0.0000000  0.0000000  3
   1180   1169   1170   1189     1  0.0000000  0.6508444  3
   1183   1180   1185   1186     1  0.0000000  0.6973333  3
   1183   1180   1169   1187     1  0.0000000  1.0460000  1
   1183   1180   1169   1187     1  0.0000000  0.0000000  3
   1184   1180   1185   1186     1  0.0000000  0.6973333  3
   1184   1180   1169   1187     1  0.0000000  1.0460000  1
   1184   1180   1169   1187     1  0.0000000  0.0000000  3
   1187   1174   1178   1188     1  0.0000000  0.6973333  3
   1187   1169   1170   1189     1  0.0000000  1.0460000  1
   1187   1169   1170   1189     1  0.0000000  0.0000000  3
   1189   1170   1190   1191     1  0.0000000  0.6973333  3
   1193   1194   1196   1200     1  0.0000000  0.6508444  3
   1193   1194   1214   1215     1  0.0000000  1.0460000  1
   1193   1194   1214   1215     1  0.0000000  0.6694400  3
   1193   1204   1209   1210     1  0.0000000  1.0460000  1
   1193   1204   1209   1210     1  0.0000000  0.6694400  3
   1193   1211   1198   1201     1  0.0000000  1.6038667  3
   1194   1196   1197   1199     1  0.0000000  0.6508444  3
   1194   1196   1203   1205     1  0.0000000  1.0460000  1
   1194   1196   1203   1205     1  0.0000000  0.6694400  3
   1194   1193   1204   1207     1  0.0000000  0.6508444  3
   1194   1193   1204   1208     1  0.0000000  0.6508444  3
   1195   1193   1194   1196     1  0.0000000  0.6508444  3
   1195   1193   1194   1214     1  0.0000000  1.0460000  1
   1195   1193   1194   1214     1  0.0000000  0.0000000  3
   1195   1193   1194   1213     1  0.0000000  0.6508444  3
   1195   1193   1204   1209     1  0.0000000  1.0460000  1
   1195   1193   1204   1209     1  0.0000000  0.0000000  3
   1195   1193   1204   1207     1  0.0000000  0.6508444  3
   1195   1193   1204   1208     1  0.0000000  0.6508444  3
   1195   1193   1211   1198     1  0.0000000  1.6038667  3
   1196   1197   1198   1201     1  0.0000000  0.6508444  3
   1196   1197   1216   1206     1  0.0000000  1.2552000  3
   1196   1194   1214   1215     1  0.0000000  1.0460000  1
   1196   1194   1214   1215     1  0.0000000  0.6694400  3
   1197   1198   1202   1212     1  0.0000000  1.0460000  1
   1197   1198   1202   1212     1  0.0000000  0.6694400  3
   1197   1196   1203   1205     1  0.0000000  1.0460000  1
   1197   1196   1203   1205     1  0.0000000  0.6694400  3
   1197   1196   1194   1213     1  0.0000000  0.6508444  3
   1198   1197   1216   1206     1  0.0000000  1.2552000  3
   1198   1197   1196   1200     1  0.0000000  0.6508444  3
   1199   1197   1198   1202     1  0.0000000  1.0460000  1
   1199   1197   1198   1202     1  0.0000000  0.0000000  3
   1199   1197   1198   1211     1  0.0000000  1.0460000  1
   1199   1197   1198   1211     1  0.0000000  0.0000000  3
   1199   1197   1198   1201     1  0.0000000  0.6508444  3
   1199   1197   1216   1206     1  0.0000000  1.2552000  3
   1199   1197   1196   1203     1  0.0000000  1.0460000  1
   1199   1197   1196   1203     1  0.0000000  0.0000000  3
   1199   1197   1196   1200     1  0.0000000  0.6508444  3
   1200   1196   1197   1216     1  0.0000000  0.6508444  3
   1200   1196   1203   1205     1  0.0000000  0.6973333  3
   1200   1196   1194   1214     1  0.0000000  1.0460000  1
   1200   1196   1194   1214     1  0.0000000  0.0000000  3
   1200   1196   1194   1213     1  0.0000000  0.6508444  3
   1201   1198   1202   1212     1  0.0000000  0.6973333  3
   1201   1198   1197   1216     1  0.0000000  0.6508444  3
   1203   1196   1194   1213     1  0.0000000  1.0460000  1
   1203   1196   1194   1213     1  0.0000000  0.0000000  3
   1204   1193   1194   1213     1  0.0000000  0.6508444  3
   1207   1204   1209   1210     1  0.0000000  0.6973333  3
   1207   1204   1193   1211     1  0.0000000  1.0460000  1
   1207   1204   1193   1211     1  0.0000000  0.0000000  3
   1208   1204   1209   1210     1  0.0000000  0.6973333  3
   1208   1204   1193   1211     1  0.0000000  1.0460000  1
   1208   1204   1193   1211     1  0.0000000  0.0000000  3
   1211   1198   1202   1212     1  0.0000000  0.6973333  3
   1211   1193   1194   1213     1  0.0000000  1.0460000  1
   1211   1193   1194   1213     1  0.0000000  0.0000000  3
   1213   1194   1214   1215     1  0.0000000  0.6973333  3
   1217   1219   1221   1223     1  0.0000000  0.6508444  3
   1217   1219   1221   1224     1  0.0000000  0.6508444  3
   1218   1217   1219   1221     1  0.0000000  0.0000000  2
   1218   1217   1219   1220     1  0.0000000  0.0000000  2
   1218   1217   1219   1222     1  0.0000000  0.0000000  2
   1220   1219   1221   1225     1  0.0000000  0.6508444  3
   1220   1219   1221   1223     1  0.0000000  0.6508444  3
   1220   1219   1221   1224     1  0.0000000  0.6508444  3
   1221   1225   1226   1235     1  0.0000000  1.2552000  3
   1221   1225   1226   1236     1  0.0000000  1.2552000  3
   1221   1225   1227   1228     1  0.0000000  1.2552000  3
   1221   1225   1227   1230     1  0.0000000  1.2552000  3
   1222   1219   1221   1225     1  0.0000000  0.6508444  3
   1222   1219   1221   1223     1  0.0000000  0.6508444  3
   1222   1219   1221   1224     1  0.0000000  0.6508444  3
   1223   1221   1225   1226     1  0.0000000  1.2552000  3
   1223   1221   1225   1227     1  0.0000000  1.2552000  3
   1224   1221   1225   1226     1  0.0000000  1.2552000  3
   1224   1221   1225   1227     1  0.0000000  1.2552000  3
   1225   1226   1237   1238     1  0.0000000  0.6508444  3
   1225   1226   1237   1239     1  0.0000000  0.6508444  3
   1225   1227   1229   1231     1  0.0000000  0.6508444  3
   1225   1227   1229   1232     1  0.0000000  0.6508444  3
   1226   1225   1227   1228     1  0.0000000  1.2552000  3
   1226   1225   1227   1230     1  0.0000000  1.2552000  3
   1227   1225   1226   1235     1  0.0000000  1.2552000  3
   1227   1225   1226   1236     1  0.0000000  1.2552000  3
   1228   1227   1229   1233     1  0.0000000  0.6508444  3
   1228   1227   1229   1231     1  0.0000000  0.6508444  3
   1228   1227   1229   1232     1  0.0000000  0.6508444  3
   1229   1233   1265   1255     1  180.0000771  6.0668000  2
   1229   1233   1265   1255     1  180.0000771  1.4644000  4
   1230   1227   1229   1233     1  0.0000000  0.6508444  3
   1230   1227   1229   1231     1  0.0000000  0.6508444  3
   1230   1227   1229   1232     1  0.0000000  0.6508444  3
   1231   1229   1233   1234     1  0.0000000  3.3472000  1
   1231   1229   1233   1234     1  0.0000000  0.0000000  2
   1231   1229   1233   1234     1  180.0000771  0.3347200  3
   1231   1229   1233   1265     1  180.0000771  0.0000000  2
   1232   1229   1233   1234     1  0.0000000  3.3472000  1
   1232   1229   1233   1234     1  0.0000000  0.0000000  2
   1232   1229   1233   1234     1  180.0000771  0.3347200  3
   1232   1229   1233   1265     1  180.0000771  0.0000000  2
   1233   1265   1246   1248     1  0.0000000  1.2552000  3
   1234   1233   1265   1255     1  180.0000771  6.0668000  2
   1234   1233   1265   1255     1  180.0000771  1.4644000  4
   1235   1226   1237   1240     1  0.0000000  0.6508444  3
   1235   1226   1237   1238     1  0.0000000  0.6508444  3
   1235   1226   1237   1239     1  0.0000000  0.6508444  3
   1236   1226   1237   1240     1  0.0000000  0.6508444  3
   1236   1226   1237   1238     1  0.0000000  0.6508444  3
   1236   1226   1237   1239     1  0.0000000  0.6508444  3
   1237   1240   1289   1279     1  180.0000771  6.0668000  2
   1237   1240   1289   1279     1  180.0000771  1.4644000  4
   1238   1237   1240   1241     1  0.0000000  3.3472000  1
   1238   1237   1240   1241     1  0.0000000  0.0000000  2
   1238   1237   1240   1241     1  180.0000771  0.3347200  3
   1238   1237   1240   1289     1  180.0000771  0.0000000  2
   1239   1237   1240   1241     1  0.0000000  3.3472000  1
   1239   1237   1240   1241     1  0.0000000  0.0000000  2
   1239   1237   1240   1241     1  180.0000771  0.3347200  3
   1239   1237   1240   1289     1  180.0000771  0.0000000  2
   1240   1289   1270   1272     1  0.0000000  1.2552000  3
   1241   1240   1289   1279     1  180.0000771  6.0668000  2
   1241   1240   1289   1279     1  180.0000771  1.4644000  4
   1242   1243   1245   1249     1  0.0000000  0.6508444  3
   1242   1243   1263   1264     1  0.0000000  1.0460000  1
   1242   1243   1263   1264     1  0.0000000  0.6694400  3
   1242   1253   1258   1259     1  0.0000000  1.0460000  1
   1242   1253   1258   1259     1  0.0000000  0.6694400  3
   1242   1260   1247   1250     1  0.0000000  1.6038667  3
   1243   1242   1253   1256     1  0.0000000  0.6508444  3
   1243   1242   1253   1257     1  0.0000000  0.6508444  3
   1243   1245   1246   1248     1  0.0000000  0.6508444  3
   1243   1245   1252   1254     1  0.0000000  1.0460000  1
   1243   1245   1252   1254     1  0.0000000  0.6694400  3
   1244   1242   1243   1245     1  0.0000000  0.6508444  3
   1244   1242   1243   1263     1  0.0000000  1.0460000  1
   1244   1242   1243   1263     1  0.0000000  0.0000000  3
   1244   1242   1243   1262     1  0.0000000  0.6508444  3
   1244   1242   1253   1258     1  0.0000000  1.0460000  1
   1244   1242   1253   1258     1  0.0000000  0.0000000  3
   1244   1242   1253   1256     1  0.0000000  0.6508444  3
   1244   1242   1253   1257     1  0.0000000  0.6508444  3
   1244   1242   1260   1247     1  0.0000000  1.6038667  3
   1245   1243   1263   1264     1  0.0000000  1.0460000  1
   1245   1243   1263   1264     1  0.0000000  0.6694400  3
   1245   1246   1247   1250     1  0.0000000  0.6508444  3
   1245   1246   1265   1255     1  0.0000000  1.2552000  3
   1246   1245   1243   1262     1  0.0000000  0.6508444  3
   1246   1245   1252   1254     1  0.0000000  1.0460000  1
   1246   1245   1252   1254     1  0.0000000  0.6694400  3
   1246   1247   1251   1261     1  0.0000000  1.0460000  1
   1246   1247   1251   1261     1  0.0000000  0.6694400  3
   1247   1246   1245   1249     1  0.0000000  0.6508444  3
   1247   1246   1265   1255     1  0.0000000  1.2552000  3
   1248   1246   1245   1252     1  0.0000000  1.0460000  1
   1248   1246   1245   1252     1  0.0000000  0.0000000  3
   1248   1246   1245   1249     1  0.0000000  0.6508444  3
   1248   1246   1247   1251     1  0.0000000  1.0460000  1
   1248   1246   1247   1251     1  0.0000000  0.0000000  3
   1248   1246   1247   1260     1  0.0000000  1.0460000  1
   1248   1246   1247   1260     1  0.0000000  0.0000000  3
   1248   1246   1247   1250     1  0.0000000  0.6508444  3
   1248   1246   1265   1255     1  0.0000000  1.2552000  3
   1249   1245   1243   1263     1  0.0000000  1.0460000  1
   1249   1245   1243   1263     1  0.0000000  0.0000000  3
   1249   1245   1243   1262     1  0.0000000  0.6508444  3
   1249   1245   1246   1265     1  0.0000000  0.6508444  3
   1249   1245   1252   1254     1  0.0000000  0.6973333  3
   1250   1247   1246   1265     1  0.0000000  0.6508444  3
   1250   1247   1251   1261     1  0.0000000  0.6973333  3
   1252   1245   1243   1262     1  0.0000000  1.0460000  1
   1252   1245   1243   1262     1  0.0000000  0.0000000  3
   1253   1242   1243   1262     1  0.0000000  0.6508444  3
   1256   1253   1242   1260     1  0.0000000  1.0460000  1
   1256   1253   1242   1260     1  0.0000000  0.0000000  3
   1256   1253   1258   1259     1  0.0000000  0.6973333  3
   1257   1253   1242   1260     1  0.0000000  1.0460000  1
   1257   1253   1242   1260     1  0.0000000  0.0000000  3
   1257   1253   1258   1259     1  0.0000000  0.6973333  3
   1260   1242   1243   1262     1  0.0000000  1.0460000  1
   1260   1242   1243   1262     1  0.0000000  0.0000000  3
   1260   1247   1251   1261     1  0.0000000  0.6973333  3
   1262   1243   1263   1264     1  0.0000000  0.6973333  3
   1266   1267   1269   1273     1  0.0000000  0.6508444  3
   1266   1267   1287   1288     1  0.0000000  1.0460000  1
   1266   1267   1287   1288     1  0.0000000  0.6694400  3
   1266   1277   1282   1283     1  0.0000000  1.0460000  1
   1266   1277   1282   1283     1  0.0000000  0.6694400  3
   1266   1284   1271   1274     1  0.0000000  1.6038667  3
   1267   1266   1277   1280     1  0.0000000  0.6508444  3
   1267   1266   1277   1281     1  0.0000000  0.6508444  3
   1267   1269   1270   1272     1  0.0000000  0.6508444  3
   1267   1269   1276   1278     1  0.0000000  1.0460000  1
   1267   1269   1276   1278     1  0.0000000  0.6694400  3
   1268   1266   1267   1269     1  0.0000000  0.6508444  3
   1268   1266   1267   1287     1  0.0000000  1.0460000  1
   1268   1266   1267   1287     1  0.0000000  0.0000000  3
   1268   1266   1267   1286     1  0.0000000  0.6508444  3
   1268   1266   1277   1282     1  0.0000000  1.0460000  1
   1268   1266   1277   1282     1  0.0000000  0.0000000  3
   1268   1266   1277   1280     1  0.0000000  0.6508444  3
   1268   1266   1277   1281     1  0.0000000  0.6508444  3
   1268   1266   1284   1271     1  0.0000000  1.6038667  3
   1269   1267   1287   1288     1  0.0000000  1.0460000  1
   1269   1267   1287   1288     1  0.0000000  0.6694400  3
   1269   1270   1271   1274     1  0.0000000  0.6508444  3
   1269   1270   1289   1279     1  0.0000000  1.2552000  3
   1270   1269   1267   1286     1  0.0000000  0.6508444  3
   1270   1269   1276   1278     1  0.0000000  1.0460000  1
   1270   1269   1276   1278     1  0.0000000  0.6694400  3
   1270   1271   1275   1285     1  0.0000000  1.0460000  1
   1270   1271   1275   1285     1  0.0000000  0.6694400  3
   1271   1270   1269   1273     1  0.0000000  0.6508444  3
   1271   1270   1289   1279     1  0.0000000  1.2552000  3
   1272   1270   1269   1276     1  0.0000000  1.0460000  1
   1272   1270   1269   1276     1  0.0000000  0.0000000  3
   1272   1270   1269   1273     1  0.0000000  0.6508444  3
   1272   1270   1271   1275     1  0.0000000  1.0460000  1
   1272   1270   1271   1275     1  0.0000000  0.0000000  3
   1272   1270   1271   1284     1  0.0000000  1.0460000  1
   1272   1270   1271   1284     1  0.0000000  0.0000000  3
   1272   1270   1271   1274     1  0.0000000  0.6508444  3
   1272   1270   1289   1279     1  0.0000000  1.2552000  3
   1273   1269   1267   1287     1  0.0000000  1.0460000  1
   1273   1269   1267   1287     1  0.0000000  0.0000000  3
   1273   1269   1267   1286     1  0.0000000  0.6508444  3
   1273   1269   1270   1289     1  0.0000000  0.6508444  3
   1273   1269   1276   1278     1  0.0000000  0.6973333  3
   1274   1271   1270   1289     1  0.0000000  0.6508444  3
   1274   1271   1275   1285     1  0.0000000  0.6973333  3
   1276   1269   1267   1286     1  0.0000000  1.0460000  1
   1276   1269   1267   1286     1  0.0000000  0.0000000  3
   1277   1266   1267   1286     1  0.0000000  0.6508444  3
   1280   1277   1266   1284     1  0.0000000  1.0460000  1
   1280   1277   1266   1284     1  0.0000000  0.0000000  3
   1280   1277   1282   1283     1  0.0000000  0.6973333  3
   1281   1277   1266   1284     1  0.0000000  1.0460000  1
   1281   1277   1266   1284     1  0.0000000  0.0000000  3
   1281   1277   1282   1283     1  0.0000000  0.6973333  3
   1284   1266   1267   1286     1  0.0000000  1.0460000  1
   1284   1266   1267   1286     1  0.0000000  0.0000000  3
   1284   1271   1275   1285     1  0.0000000  0.6973333  3
   1286   1267   1287   1288     1  0.0000000  0.6973333  3
   1290   1292   1294   1296     1  0.0000000  0.6508444  3
   1290   1292   1294   1297     1  0.0000000  0.6508444  3
   1291   1290   1292   1294     1  0.0000000  0.0000000  2
   1291   1290   1292   1293     1  0.0000000  0.0000000  2
   1291   1290   1292   1295     1  0.0000000  0.0000000  2
   1293   1292   1294   1298     1  0.0000000  0.6508444  3
   1293   1292   1294   1296     1  0.0000000  0.6508444  3
   1293   1292   1294   1297     1  0.0000000  0.6508444  3
   1294   1298   1299   1308     1  0.0000000  1.2552000  3
   1294   1298   1299   1309     1  0.0000000  1.2552000  3
   1294   1298   1300   1301     1  0.0000000  1.2552000  3
   1294   1298   1300   1303     1  0.0000000  1.2552000  3
   1295   1292   1294   1298     1  0.0000000  0.6508444  3
   1295   1292   1294   1296     1  0.0000000  0.6508444  3
   1295   1292   1294   1297     1  0.0000000  0.6508444  3
   1296   1294   1298   1299     1  0.0000000  1.2552000  3
   1296   1294   1298   1300     1  0.0000000  1.2552000  3
   1297   1294   1298   1299     1  0.0000000  1.2552000  3
   1297   1294   1298   1300     1  0.0000000  1.2552000  3
   1298   1299   1310   1311     1  0.0000000  0.6508444  3
   1298   1299   1310   1312     1  0.0000000  0.6508444  3
   1298   1300   1302   1304     1  0.0000000  0.6508444  3
   1298   1300   1302   1305     1  0.0000000  0.6508444  3
   1299   1298   1300   1301     1  0.0000000  1.2552000  3
   1299   1298   1300   1303     1  0.0000000  1.2552000  3
   1300   1298   1299   1308     1  0.0000000  1.2552000  3
   1300   1298   1299   1309     1  0.0000000  1.2552000  3
   1301   1300   1302   1306     1  0.0000000  0.6508444  3
   1301   1300   1302   1304     1  0.0000000  0.6508444  3
   1301   1300   1302   1305     1  0.0000000  0.6508444  3
   1302   1306   1338   1328     1  180.0000771  6.0668000  2
   1302   1306   1338   1328     1  180.0000771  1.4644000  4
   1303   1300   1302   1306     1  0.0000000  0.6508444  3
   1303   1300   1302   1304     1  0.0000000  0.6508444  3
   1303   1300   1302   1305     1  0.0000000  0.6508444  3
   1304   1302   1306   1307     1  0.0000000  3.3472000  1
   1304   1302   1306   1307     1  0.0000000  0.0000000  2
   1304   1302   1306   1307     1  180.0000771  0.3347200  3
   1304   1302   1306   1338     1  180.0000771  0.0000000  2
   1305   1302   1306   1307     1  0.0000000  3.3472000  1
   1305   1302   1306   1307     1  0.0000000  0.0000000  2
   1305   1302   1306   1307     1  180.0000771  0.3347200  3
   1305   1302   1306   1338     1  180.0000771  0.0000000  2
   1306   1338   1319   1321     1  0.0000000  1.2552000  3
   1307   1306   1338   1328     1  180.0000771  6.0668000  2
   1307   1306   1338   1328     1  180.0000771  1.4644000  4
   1308   1299   1310   1313     1  0.0000000  0.6508444  3
   1308   1299   1310   1311     1  0.0000000  0.6508444  3
   1308   1299   1310   1312     1  0.0000000  0.6508444  3
   1309   1299   1310   1313     1  0.0000000  0.6508444  3
   1309   1299   1310   1311     1  0.0000000  0.6508444  3
   1309   1299   1310   1312     1  0.0000000  0.6508444  3
   1310   1313   1362   1352     1  180.0000771  6.0668000  2
   1310   1313   1362   1352     1  180.0000771  1.4644000  4
   1311   1310   1313   1314     1  0.0000000  3.3472000  1
   1311   1310   1313   1314     1  0.0000000  0.0000000  2
   1311   1310   1313   1314     1  180.0000771  0.3347200  3
   1311   1310   1313   1362     1  180.0000771  0.0000000  2
   1312   1310   1313   1314     1  0.0000000  3.3472000  1
   1312   1310   1313   1314     1  0.0000000  0.0000000  2
   1312   1310   1313   1314     1  180.0000771  0.3347200  3
   1312   1310   1313   1362     1  180.0000771  0.0000000  2
   1313   1362   1343   1345     1  0.0000000  1.2552000  3
   1314   1313   1362   1352     1  180.0000771  6.0668000  2
   1314   1313   1362   1352     1  180.0000771  1.4644000  4
   1315   1316   1318   1322     1  0.0000000  0.6508444  3
   1315   1316   1336   1337     1  0.0000000  1.0460000  1
   1315   1316   1336   1337     1  0.0000000  0.6694400  3
   1315   1326   1331   1332     1  0.0000000  1.0460000  1
   1315   1326   1331   1332     1  0.0000000  0.6694400  3
   1315   1333   1320   1323     1  0.0000000  1.6038667  3
   1316   1318   1319   1321     1  0.0000000  0.6508444  3
   1316   1318   1325   1327     1  0.0000000  1.0460000  1
   1316   1318   1325   1327     1  0.0000000  0.6694400  3
   1316   1315   1326   1329     1  0.0000000  0.6508444  3
   1316   1315   1326   1330     1  0.0000000  0.6508444  3
   1317   1315   1316   1318     1  0.0000000  0.6508444  3
   1317   1315   1316   1336     1  0.0000000  1.0460000  1
   1317   1315   1316   1336     1  0.0000000  0.0000000  3
   1317   1315   1316   1335     1  0.0000000  0.6508444  3
   1317   1315   1326   1331     1  0.0000000  1.0460000  1
   1317   1315   1326   1331     1  0.0000000  0.0000000  3
   1317   1315   1326   1329     1  0.0000000  0.6508444  3
   1317   1315   1326   1330     1  0.0000000  0.6508444  3
   1317   1315   1333   1320     1  0.0000000  1.6038667  3
   1318   1319   1320   1323     1  0.0000000  0.6508444  3
   1318   1319   1338   1328     1  0.0000000  1.2552000  3
   1318   1316   1336   1337     1  0.0000000  1.0460000  1
   1318   1316   1336   1337     1  0.0000000  0.6694400  3
   1319   1320   1324   1334     1  0.0000000  1.0460000  1
   1319   1320   1324   1334     1  0.0000000  0.6694400  3
   1319   1318   1325   1327     1  0.0000000  1.0460000  1
   1319   1318   1325   1327     1  0.0000000  0.6694400  3
   1319   1318   1316   1335     1  0.0000000  0.6508444  3
   1320   1319   1338   1328     1  0.0000000  1.2552000  3
   1320   1319   1318   1322     1  0.0000000  0.6508444  3
   1321   1319   1320   1324     1  0.0000000  1.0460000  1
   1321   1319   1320   1324     1  0.0000000  0.0000000  3
   1321   1319   1320   1333     1  0.0000000  1.0460000  1
   1321   1319   1320   1333     1  0.0000000  0.0000000  3
   1321   1319   1320   1323     1  0.0000000  0.6508444  3
   1321   1319   1338   1328     1  0.0000000  1.2552000  3
   1321   1319   1318   1325     1  0.0000000  1.0460000  1
   1321   1319   1318   1325     1  0.0000000  0.0000000  3
   1321   1319   1318   1322     1  0.0000000  0.6508444  3
   1322   1318   1319   1338     1  0.0000000  0.6508444  3
   1322   1318   1325   1327     1  0.0000000  0.6973333  3
   1322   1318   1316   1336     1  0.0000000  1.0460000  1
   1322   1318   1316   1336     1  0.0000000  0.0000000  3
   1322   1318   1316   1335     1  0.0000000  0.6508444  3
   1323   1320   1324   1334     1  0.0000000  0.6973333  3
   1323   1320   1319   1338     1  0.0000000  0.6508444  3
   1325   1318   1316   1335     1  0.0000000  1.0460000  1
   1325   1318   1316   1335     1  0.0000000  0.0000000  3
   1326   1315   1316   1335     1  0.0000000  0.6508444  3
   1329   1326   1331   1332     1  0.0000000  0.6973333  3
   1329   1326   1315   1333     1  0.0000000  1.0460000  1
   1329   1326   1315   1333     1  0.0000000  0.0000000  3
   1330   1326   1331   1332     1  0.0000000  0.6973333  3
   1330   1326   1315   1333     1  0.0000000  1.0460000  1
   1330   1326   1315   1333     1  0.0000000  0.0000000  3
   1333   1320   1324   1334     1  0.0000000  0.6973333  3
   1333   1315   1316   1335     1  0.0000000  1.0460000  1
   1333   1315   1316   1335     1  0.0000000  0.0000000  3
   1335   1316   1336   1337     1  0.0000000  0.6973333  3
   1339   1340   1342   1346     1  0.0000000  0.6508444  3
   1339   1340   1360   1361     1  0.0000000  1.0460000  1
   1339   1340   1360   1361     1  0.0000000  0.6694400  3
   1339   1350   1355   1356     1  0.0000000  1.0460000  1
   1339   1350   1355   1356     1  0.0000000  0.6694400  3
   1339   1357   1344   1347     1  0.0000000  1.6038667  3
   1340   1342   1343   1345     1  0.0000000  0.6508444  3
   1340   1342   1349   1351     1  0.0000000  1.0460000  1
   1340   1342   1349   1351     1  0.0000000  0.6694400  3
   1340   1339   1350   1353     1  0.0000000  0.6508444  3
   1340   1339   1350   1354     1  0.0000000  0.6508444  3
   1341   1339   1340   1342     1  0.0000000  0.6508444  3
   1341   1339   1340   1360     1  0.0000000  1.0460000  1
   1341   1339   1340   1360     1  0.0000000  0.0000000  3
   1341   1339   1340   1359     1  0.0000000  0.6508444  3
   1341   1339   1350   1355     1  0.0000000  1.0460000  1
   1341   1339   1350   1355     1  0.0000000  0.0000000  3
   1341   1339   1350   1353     1  0.0000000  0.6508444  3
   1341   1339   1350   1354     1  0.0000000  0.6508444  3
   1341   1339   1357   1344     1  0.0000000  1.6038667  3
   1342   1343   1344   1347     1  0.0000000  0.6508444  3
   1342   1343   1362   1352     1  0.0000000  1.2552000  3
   1342   1340   1360   1361     1  0.0000000  1.0460000  1
   1342   1340   1360   1361     1  0.0000000  0.6694400  3
   1343   1344   1348   1358     1  0.0000000  1.0460000  1
   1343   1344   1348   1358     1  0.0000000  0.6694400  3
   1343   1342   1349   1351     1  0.0000000  1.0460000  1
   1343   1342   1349   1351     1  0.0000000  0.6694400  3
   1343   1342   1340   1359     1  0.0000000  0.6508444  3
   1344   1343   1362   1352     1  0.0000000  1.2552000  3
   1344   1343   1342   1346     1  0.0000000  0.6508444  3
   1345   1343   1344   1348     1  0.0000000  1.0460000  1
   1345   1343   1344   1348     1  0.0000000  0.0000000  3
   1345   1343   1344   1357     1  0.0000000  1.0460000  1
   1345   1343   1344   1357     1  0.0000000  0.0000000  3
   1345   1343   1344   1347     1  0.0000000  0.6508444  3
   1345   1343   1362   1352     1  0.0000000  1.2552000  3
   1345   1343   1342   1349     1  0.0000000  1.0460000  1
   1345   1343   1342   1349     1  0.0000000  0.0000000  3
   1345   1343   1342   1346     1  0.0000000  0.6508444  3
   1346   1342   1343   1362     1  0.0000000  0.6508444  3
   1346   1342   1349   1351     1  0.0000000  0.6973333  3
   1346   1342   1340   1360     1  0.0000000  1.0460000  1
   1346   1342   1340   1360     1  0.0000000  0.0000000  3
   1346   1342   1340   1359     1  0.0000000  0.6508444  3
   1347   1344   1348   1358     1  0.0000000  0.6973333  3
   1347   1344   1343   1362     1  0.0000000  0.6508444  3
   1349   1342   1340   1359     1  0.0000000  1.0460000  1
   1349   1342   1340   1359     1  0.0000000  0.0000000  3
   1350   1339   1340   1359     1  0.0000000  0.6508444  3
   1353   1350   1355   1356     1  0.0000000  0.6973333  3
   1353   1350   1339   1357     1  0.0000000  1.0460000  1
   1353   1350   1339   1357     1  0.0000000  0.0000000  3
   1354   1350   1355   1356     1  0.0000000  0.6973333  3
   1354   1350   1339   1357     1  0.0000000  1.0460000  1
   1354   1350   1339   1357     1  0.0000000  0.0000000  3
   1357   1344   1348   1358     1  0.0000000  0.6973333  3
   1357   1339   1340   1359     1  0.0000000  1.0460000  1
   1357   1339   1340   1359     1  0.0000000  0.0000000  3
   1359   1340   1360   1361     1  0.0000000  0.6973333  3
   1363   1365   1367   1369     1  0.0000000  0.6508444  3
   1363   1365   1367   1370     1  0.0000000  0.6508444  3
   1364   1363   1365   1367     1  0.0000000  0.0000000  2
   1364   1363   1365   1366     1  0.0000000  0.0000000  2
   1364   1363   1365   1368     1  0.0000000  0.0000000  2
   1366   1365   1367   1371     1  0.0000000  0.6508444  3
   1366   1365   1367   1369     1  0.0000000  0.6508444  3
   1366   1365   1367   1370     1  0.0000000  0.6508444  3
   1367   1371   1372   1381     1  0.0000000  1.2552000  3
   1367   1371   1372   1382     1  0.0000000  1.2552000  3
   1367   1371   1373   1374     1  0.0000000  1.2552000  3
   1367   1371   1373   1376     1  0.0000000  1.2552000  3
   1368   1365   1367   1371     1  0.0000000  0.6508444  3
   1368   1365   1367   1369     1  0.0000000  0.6508444  3
   1368   1365   1367   1370     1  0.0000000  0.6508444  3
   1369   1367   1371   1372     1  0.0000000  1.2552000  3
   1369   1367   1371   1373     1  0.0000000  1.2552000  3
   1370   1367   1371   1372     1  0.0000000  1.2552000  3
   1370   1367   1371   1373     1  0.0000000  1.2552000  3
   1371   1372   1383   1384     1  0.0000000  0.6508444  3
   1371   1372   1383   1385     1  0.0000000  0.6508444  3
   1371   1373   1375   1377     1  0.0000000  0.6508444  3
   1371   1373   1375   1378     1  0.0000000  0.6508444  3
   1372   1371   1373   1374     1  0.0000000  1.2552000  3
   1372   1371   1373   1376     1  0.0000000  1.2552000  3
   1373   1371   1372   1381     1  0.0000000  1.2552000  3
   1373   1371   1372   1382     1  0.0000000  1.2552000  3
   1374   1373   1375   1379     1  0.0000000  0.6508444  3
   1374   1373   1375   1377     1  0.0000000  0.6508444  3
   1374   1373   1375   1378     1  0.0000000  0.6508444  3
   1375   1379   1411   1401     1  180.0000771  6.0668000  2
   1375   1379   1411   1401     1  180.0000771  1.4644000  4
   1376   1373   1375   1379     1  0.0000000  0.6508444  3
   1376   1373   1375   1377     1  0.0000000  0.6508444  3
   1376   1373   1375   1378     1  0.0000000  0.6508444  3
   1377   1375   1379   1380     1  0.0000000  3.3472000  1
   1377   1375   1379   1380     1  0.0000000  0.0000000  2
   1377   1375   1379   1380     1  180.0000771  0.3347200  3
   1377   1375   1379   1411     1  180.0000771  0.0000000  2
   1378   1375   1379   1380     1  0.0000000  3.3472000  1
   1378   1375   1379   1380     1  0.0000000  0.0000000  2
   1378   1375   1379   1380     1  180.0000771  0.3347200  3
   1378   1375   1379   1411     1  180.0000771  0.0000000  2
   1379   1411   1392   1394     1  0.0000000  1.2552000  3
   1380   1379   1411   1401     1  180.0000771  6.0668000  2
   1380   1379   1411   1401     1  180.0000771  1.4644000  4
   1381   1372   1383   1386     1  0.0000000  0.6508444  3
   1381   1372   1383   1384     1  0.0000000  0.6508444  3
   1381   1372   1383   1385     1  0.0000000  0.6508444  3
   1382   1372   1383   1386     1  0.0000000  0.6508444  3
   1382   1372   1383   1384     1  0.0000000  0.6508444  3
   1382   1372   1383   1385     1  0.0000000  0.6508444  3
   1383   1386   1435   1425     1  180.0000771  6.0668000  2
   1383   1386   1435   1425     1  180.0000771  1.4644000  4
   1384   1383   1386   1387     1  0.0000000  3.3472000  1
   1384   1383   1386   1387     1  0.0000000  0.0000000  2
   1384   1383   1386   1387     1  180.0000771  0.3347200  3
   1384   1383   1386   1435     1  180.0000771  0.0000000  2
   1385   1383   1386   1387     1  0.0000000  3.3472000  1
   1385   1383   1386   1387     1  0.0000000  0.0000000  2
   1385   1383   1386   1387     1  180.0000771  0.3347200  3
   1385   1383   1386   1435     1  180.0000771  0.0000000  2
   1386   1435   1416   1418     1  0.0000000  1.2552000  3
   1387   1386   1435   1425     1  180.0000771  6.0668000  2
   1387   1386   1435   1425     1  180.0000771  1.4644000  4
   1388   1389   1391   1395     1  0.0000000  0.6508444  3
   1388   1389   1409   1410     1  0.0000000  1.0460000  1
   1388   1389   1409   1410     1  0.0000000  0.6694400  3
   1388   1399   1404   1405     1  0.0000000  1.0460000  1
   1388   1399   1404   1405     1  0.0000000  0.6694400  3
   1388   1406   1393   1396     1  0.0000000  1.6038667  3
   1389   1388   1399   1402     1  0.0000000  0.6508444  3
   1389   1388   1399   1403     1  0.0000000  0.6508444  3
   1389   1391   1392   1394     1  0.0000000  0.6508444  3
   1389   1391   1398   1400     1  0.0000000  1.0460000  1
   1389   1391   1398   1400     1  0.0000000  0.6694400  3
   1390   1388   1389   1391     1  0.0000000  0.6508444  3
   1390   1388   1389   1409     1  0.0000000  1.0460000  1
   1390   1388   1389   1409     1  0.0000000  0.0000000  3
   1390   1388   1389   1408     1  0.0000000  0.6508444  3
   1390   1388   1399   1404     1  0.0000000  1.0460000  1
   1390   1388   1399   1404     1  0.0000000  0.0000000  3
   1390   1388   1399   1402     1  0.0000000  0.6508444  3
   1390   1388   1399   1403     1  0.0000000  0.6508444  3
   1390   1388   1406   1393     1  0.0000000  1.6038667  3
   1391   1389   1409   1410     1  0.0000000  1.0460000  1
   1391   1389   1409   1410     1  0.0000000  0.6694400  3
   1391   1392   1393   1396     1  0.0000000  0.6508444  3
   1391   1392   1411   1401     1  0.0000000  1.2552000  3
   1392   1391   1389   1408     1  0.0000000  0.6508444  3
   1392   1391   1398   1400     1  0.0000000  1.0460000  1
   1392   1391   1398   1400     1  0.0000000  0.6694400  3
   1392   1393   1397   1407     1  0.0000000  1.0460000  1
   1392   1393   1397   1407     1  0.0000000  0.6694400  3
   1393   1392   1391   1395     1  0.0000000  0.6508444  3
   1393   1392   1411   1401     1  0.0000000  1.2552000  3
   1394   1392   1391   1398     1  0.0000000  1.0460000  1
   1394   1392   1391   1398     1  0.0000000  0.0000000  3
   1394   1392   1391   1395     1  0.0000000  0.6508444  3
   1394   1392   1393   1397     1  0.0000000  1.0460000  1
   1394   1392   1393   1397     1  0.0000000  0.0000000  3
   1394   1392   1393   1406     1  0.0000000  1.0460000  1
   1394   1392   1393   1406     1  0.0000000  0.0000000  3
   1394   1392   1393   1396     1  0.0000000  0.6508444  3
   1394   1392   1411   1401     1  0.0000000  1.2552000  3
   1395   1391   1389   1409     1  0.0000000  1.0460000  1
   1395   1391   1389   1409     1  0.0000000  0.0000000  3
   1395   1391   1389   1408     1  0.0000000  0.6508444  3
   1395   1391   1392   1411     1  0.0000000  0.6508444  3
   1395   1391   1398   1400     1  0.0000000  0.6973333  3
   1396   1393   1392   1411     1  0.0000000  0.6508444  3
   1396   1393   1397   1407     1  0.0000000  0.6973333  3
   1398   1391   1389   1408     1  0.0000000  1.0460000  1
   1398   1391   1389   1408     1  0.0000000  0.0000000  3
   1399   1388   1389   1408     1  0.0000000  0.6508444  3
   1402   1399   1388   1406     1  0.0000000  1.0460000  1
   1402   1399   1388   1406     1  0.0000000  0.0000000  3
   1402   1399   1404   1405     1  0.0000000  0.6973333  3
   1403   1399   1388   1406     1  0.0000000  1.0460000  1
   1403   1399   1388   1406     1  0.0000000  0.0000000  3
   1403   1399   1404   1405     1  0.0000000  0.6973333  3
   1406   1388   1389   1408     1  0.0000000  1.0460000  1
   1406   1388   1389   1408     1  0.0000000  0.0000000  3
   1406   1393   1397   1407     1  0.0000000  0.6973333  3
   1408   1389   1409   1410     1  0.0000000  0.6973333  3
   1412   1413   1415   1419     1  0.0000000  0.6508444  3
   1412   1413   1433   1434     1  0.0000000  1.0460000  1
   1412   1413   1433   1434     1  0.0000000  0.6694400  3
   1412   1423   1428   1429     1  0.0000000  1.0460000  1
   1412   1423   1428   1429     1  0.0000000  0.6694400  3
   1412   1430   1417   1420     1  0.0000000  1.6038667  3
   1413   1412   1423   1426     1  0.0000000  0.6508444  3
   1413   1412   1423   1427     1  0.0000000  0.6508444  3
   1413   1415   1416   1418     1  0.0000000  0.6508444  3
   1413   1415   1422   1424     1  0.0000000  1.0460000  1
   1413   1415   1422   1424     1  0.0000000  0.6694400  3
   1414   1412   1413   1415     1  0.0000000  0.6508444  3
   1414   1412   1413   1433     1  0.0000000  1.0460000  1
   1414   1412   1413   1433     1  0.0000000  0.0000000  3
   1414   1412   1413   1432     1  0.0000000  0.6508444  3
   1414   1412   1423   1428     1  0.0000000  1.0460000  1
   1414   1412   1423   1428     1  0.0000000  0.0000000  3
   1414   1412   1423   1426     1  0.0000000  0.6508444  3
   1414   1412   1423   1427     1  0.0000000  0.6508444  3
   1414   1412   1430   1417     1  0.0000000  1.6038667  3
   1415   1413   1433   1434     1  0.0000000  1.0460000  1
   1415   1413   1433   1434     1  0.0000000  0.6694400  3
   1415   1416   1417   1420     1  0.0000000  0.6508444  3
   1415   1416   1435   1425     1  0.0000000  1.2552000  3
   1416   1415   1413   1432     1  0.0000000  0.6508444  3
   1416   1415   1422   1424     1  0.0000000  1.0460000  1
   1416   1415   1422   1424     1  0.0000000  0.6694400  3
   1416   1417   1421   1431     1  0.0000000  1.0460000  1
   1416   1417   1421   1431     1  0.0000000  0.6694400  3
   1417   1416   1415   1419     1  0.0000000  0.6508444  3
   1417   1416   1435   1425     1  0.0000000  1.2552000  3
   1418   1416   1415   1422     1  0.0000000  1.0460000  1
   1418   1416   1415   1422     1  0.0000000  0.0000000  3
   1418   1416   1415   1419     1  0.0000000  0.6508444  3
   1418   1416   1417   1421     1  0.0000000  1.0460000  1
   1418   1416   1417   1421     1  0.0000000  0.0000000  3
   1418   1416   1417   1430     1  0.0000000  1.0460000  1
   1418   1416   1417   1430     1  0.0000000  0.0000000  3
   1418   1416   1417   1420     1  0.0000000  0.6508444  3
   1418   1416   1435   1425     1  0.0000000  1.2552000  3
   1419   1415   1413   1433     1  0.0000000  1.0460000  1
   1419   1415   1413   1433     1  0.0000000  0.0000000  3
   1419   1415   1413   1432     1  0.0000000  0.6508444  3
   1419   1415   1416   1435     1  0.0000000  0.6508444  3
   1419   1415   1422   1424     1  0.0000000  0.6973333  3
   1420   1417   1416   1435     1  0.0000000  0.6508444  3
   1420   1417   1421   1431     1  0.0000000  0.6973333  3
   1422   1415   1413   1432     1  0.0000000  1.0460000  1
   1422   1415   1413   1432     1  0.0000000  0.0000000  3
   1423   1412   1413   1432     1  0.0000000  0.6508444  3
   1426   1423   1412   1430     1  0.0000000  1.0460000  1
   1426   1423   1412   1430     1  0.0000000  0.0000000  3
   1426   1423   1428   1429     1  0.0000000  0.6973333  3
   1427   1423   1412   1430     1  0.0000000  1.0460000  1
   1427   1423   1412   1430     1  0.0000000  0.0000000  3
   1427   1423   1428   1429     1  0.0000000  0.6973333  3
   1430   1412   1413   1432     1  0.0000000  1.0460000  1
   1430   1412   1413   1432     1  0.0000000  0.0000000  3
   1430   1417   1421   1431     1  0.0000000  0.6973333  3
   1432   1413   1433   1434     1  0.0000000  0.6973333  3
   1436   1438   1440   1442     1  0.0000000  0.6508444  3
   1436   1438   1440   1443     1  0.0000000  0.6508444  3
   1437   1436   1438   1440     1  0.0000000  0.0000000  2
   1437   1436   1438   1439     1  0.0000000  0.0000000  2
   1437   1436   1438   1441     1  0.0000000  0.0000000  2
   1439   1438   1440   1444     1  0.0000000  0.6508444  3
   1439   1438   1440   1442     1  0.0000000  0.6508444  3
   1439   1438   1440   1443     1  0.0000000  0.6508444  3
   1440   1444   1445   1454     1  0.0000000  1.2552000  3
   1440   1444   1445   1455     1  0.0000000  1.2552000  3
   1440   1444   1446   1447     1  0.0000000  1.2552000  3
   1440   1444   1446   1449     1  0.0000000  1.2552000  3
   1441   1438   1440   1444     1  0.0000000  0.6508444  3
   1441   1438   1440   1442     1  0.0000000  0.6508444  3
   1441   1438   1440   1443     1  0.0000000  0.6508444  3
   1442   1440   1444   1445     1  0.0000000  1.2552000  3
   1442   1440   1444   1446     1  0.0000000  1.2552000  3
   1443   1440   1444   1445     1  0.0000000  1.2552000  3
   1443   1440   1444   1446     1  0.0000000  1.2552000  3
   1444   1445   1456   1457     1  0.0000000  0.6508444  3
   1444   1445   1456   1458     1  0.0000000  0.6508444  3
   1444   1446   1448   1450     1  0.0000000  0.6508444  3
   1444   1446   1448   1451     1  0.0000000  0.6508444  3
   1445   1444   1446   1447     1  0.0000000  1.2552000  3
   1445   1444   1446   1449     1  0.0000000  1.2552000  3
   1446   1444   1445   1454     1  0.0000000  1.2552000  3
   1446   1444   1445   1455     1  0.0000000  1.2552000  3
   1447   1446   1448   1452     1  0.0000000  0.6508444  3
   1447   1446   1448   1450     1  0.0000000  0.6508444  3
   1447   1446   1448   1451     1  0.0000000  0.6508444  3
   1448   1452   1484   1474     1  180.0000771  6.0668000  2
   1448   1452   1484   1474     1  180.0000771  1.4644000  4
   1449   1446   1448   1452     1  0.0000000  0.6508444  3
   1449   1446   1448   1450     1  0.0000000  0.6508444  3
   1449   1446   1448   1451     1  0.0000000  0.6508444  3
   1450   1448   1452   1453     1  0.0000000  3.3472000  1
   1450   1448   1452   1453     1  0.0000000  0.0000000  2
   1450   1448   1452   1453     1  180.0000771  0.3347200  3
   1450   1448   1452   1484     1  180.0000771  0.0000000  2
   1451   1448   1452   1453     1  0.0000000  3.3472000  1
   1451   1448   1452   1453     1  0.0000000  0.0000000  2
   1451   1448   1452   1453     1  180.0000771  0.3347200  3
   1451   1448   1452   1484     1  180.0000771  0.0000000  2
   1452   1484   1465   1467     1  0.0000000  1.2552000  3
   1453   1452   1484   1474     1  180.0000771  6.0668000  2
   1453   1452   1484   1474     1  180.0000771  1.4644000  4
   1454   1445   1456   1459     1  0.0000000  0.6508444  3
   1454   1445   1456   1457     1  0.0000000  0.6508444  3
   1454   1445   1456   1458     1  0.0000000  0.6508444  3
   1455   1445   1456   1459     1  0.0000000  0.6508444  3
   1455   1445   1456   1457     1  0.0000000  0.6508444  3
   1455   1445   1456   1458     1  0.0000000  0.6508444  3
   1456   1459   1508   1498     1  180.0000771  6.0668000  2
   1456   1459   1508   1498     1  180.0000771  1.4644000  4
   1457   1456   1459   1460     1  0.0000000  3.3472000  1
   1457   1456   1459   1460     1  0.0000000  0.0000000  2
   1457   1456   1459   1460     1  180.0000771  0.3347200  3
   1457   1456   1459   1508     1  180.0000771  0.0000000  2
   1458   1456   1459   1460     1  0.0000000  3.3472000  1
   1458   1456   1459   1460     1  0.0000000  0.0000000  2
   1458   1456   1459   1460     1  180.0000771  0.3347200  3
   1458   1456   1459   1508     1  180.0000771  0.0000000  2
   1459   1508   1489   1491     1  0.0000000  1.2552000  3
   1460   1459   1508   1498     1  180.0000771  6.0668000  2
   1460   1459   1508   1498     1  180.0000771  1.4644000  4
   1461   1462   1464   1468     1  0.0000000  0.6508444  3
   1461   1462   1482   1483     1  0.0000000  1.0460000  1
   1461   1462   1482   1483     1  0.0000000  0.6694400  3
   1461   1472   1477   1478     1  0.0000000  1.0460000  1
   1461   1472   1477   1478     1  0.0000000  0.6694400  3
   1461   1479   1466   1469     1  0.0000000  1.6038667  3
   1462   1464   1465   1467     1  0.0000000  0.6508444  3
   1462   1464   1471   1473     1  0.0000000  1.0460000  1
   1462   1464   1471   1473     1  0.0000000  0.6694400  3
   1462   1461   1472   1475     1  0.0000000  0.6508444  3
   1462   1461   1472   1476     1  0.0000000  0.6508444  3
   1463   1461   1462   1464     1  0.0000000  0.6508444  3
   1463   1461   1462   1482     1  0.0000000  1.0460000  1
   1463   1461   1462   1482     1  0.0000000  0.0000000  3
   1463   1461   1462   1481     1  0.0000000  0.6508444  3
   1463   1461   1472   1477     1  0.0000000  1.0460000  1
   1463   1461   1472   1477     1  0.0000000  0.0000000  3
   1463   1461   1472   1475     1  0.0000000  0.6508444  3
   1463   1461   1472   1476     1  0.0000000  0.6508444  3
   1463   1461   1479   1466     1  0.0000000  1.6038667  3
   1464   1465   1466   1469     1  0.0000000  0.6508444  3
   1464   1465   1484   1474     1  0.0000000  1.2552000  3
   1464   1462   1482   1483     1  0.0000000  1.0460000  1
   1464   1462   1482   1483     1  0.0000000  0.6694400  3
   1465   1466   1470   1480     1  0.0000000  1.0460000  1
   1465   1466   1470   1480     1  0.0000000  0.6694400  3
   1465   1464   1471   1473     1  0.0000000  1.0460000  1
   1465   1464   1471   1473     1  0.0000000  0.6694400  3
   1465   1464   1462   1481     1  0.0000000  0.6508444  3
   1466   1465   1484   1474     1  0.0000000  1.2552000  3
   1466   1465   1464   1468     1  0.0000000  0.6508444  3
   1467   1465   1466   1470     1  0.0000000  1.0460000  1
   1467   1465   1466   1470     1  0.0000000  0.0000000  3
   1467   1465   1466   1479     1  0.0000000  1.0460000  1
   1467   1465   1466   1479     1  0.0000000  0.0000000  3
   1467   1465   1466   1469     1  0.0000000  0.6508444  3
   1467   1465   1484   1474     1  0.0000000  1.2552000  3
   1467   1465   1464   1471     1  0.0000000  1.0460000  1
   1467   1465   1464   1471     1  0.0000000  0.0000000  3
   1467   1465   1464   1468     1  0.0000000  0.6508444  3
   1468   1464   1465   1484     1  0.0000000  0.6508444  3
   1468   1464   1471   1473     1  0.0000000  0.6973333  3
   1468   1464   1462   1482     1  0.0000000  1.0460000  1
   1468   1464   1462   1482     1  0.0000000  0.0000000  3
   1468   1464   1462   1481     1  0.0000000  0.6508444  3
   1469   1466   1470   1480     1  0.0000000  0.6973333  3
   1469   1466   1465   1484     1  0.0000000  0.6508444  3
   1471   1464   1462   1481     1  0.0000000  1.0460000  1
   1471   1464   1462   1481     1  0.0000000  0.0000000  3
   1472   1461   1462   1481     1  0.0000000  0.6508444  3
   1475   1472   1477   1478     1  0.0000000  0.6973333  3
   1475   1472   1461   1479     1  0.0000000  1.0460000  1
   1475   1472   1461   1479     1  0.0000000  0.0000000  3
   1476   1472   1477   1478     1  0.0000000  0.6973333  3
   1476   1472   1461   1479     1  0.0000000  1.0460000  1
   1476   1472   1461   1479     1  0.0000000  0.0000000  3
   1479   1466   1470   1480     1  0.0000000  0.6973333  3
   1479   1461   1462   1481     1  0.0000000  1.0460000  1
   1479   1461   1462   1481     1  0.0000000  0.0000000  3
   1481   1462   1482   1483     1  0.0000000  0.6973333  3
   1485   1486   1488   1492     1  0.0000000  0.6508444  3
   1485   1486   1506   1507     1  0.0000000  1.0460000  1
   1485   1486   1506   1507     1  0.0000000  0.6694400  3
   1485   1496   1501   1502     1  0.0000000  1.0460000  1
   1485   1496   1501   1502     1  0.0000000  0.6694400  3
   1485   1503   1490   1493     1  0.0000000  1.6038667  3
   1486   1488   1489   1491     1  0.0000000  0.6508444  3
   1486   1488   1495   1497     1  0.0000000  1.0460000  1
   1486   1488   1495   1497     1  0.0000000  0.6694400  3
   1486   1485   1496   1499     1  0.0000000  0.6508444  3
   1486   1485   1496   1500     1  0.0000000  0.6508444  3
   1487   1485   1486   1488     1  0.0000000  0.6508444  3
   1487   1485   1486   1506     1  0.0000000  1.0460000  1
   1487   1485   1486   1506     1  0.0000000  0.0000000  3
   1487   1485   1486   1505     1  0.0000000  0.6508444  3
   1487   1485   1496   1501     1  0.0000000  1.0460000  1
   1487   1485   1496   1501     1  0.0000000  0.0000000  3
   1487   1485   1496   1499     1  0.0000000  0.6508444  3
   1487   1485   1496   1500     1  0.0000000  0.6508444  3
   1487   1485   1503   1490     1  0.0000000  1.6038667  3
   1488   1489   1490   1493     1  0.0000000  0.6508444  3
   1488   1489   1508   1498     1  0.0000000  1.2552000  3
   1488   1486   1506   1507     1  0.0000000  1.0460000  1
   1488   1486   1506   1507     1  0.0000000  0.6694400  3
   1489   1490   1494   1504     1  0.0000000  1.0460000  1
   1489   1490   1494   1504     1  0.0000000  0.6694400  3
   1489   1488   1495   1497     1  0.0000000  1.0460000  1
   1489   1488   1495   1497     1  0.0000000  0.6694400  3
   1489   1488   1486   1505     1  0.0000000  0.6508444  3
   1490   1489   1508   1498     1  0.0000000  1.2552000  3
   1490   1489   1488   1492     1  0.0000000  0.6508444  3
   1491   1489   1490   1494     1  0.0000000  1.0460000  1
   1491   1489   1490   1494     1  0.0000000  0.0000000  3
   1491   1489   1490   1503     1  0.0000000  1.0460000  1
   1491   1489   1490   1503     1  0.0000000  0.0000000  3
   1491   1489   1490   1493     1  0.0000000  0.6508444  3
   1491   1489   1508   1498     1  0.0000000  1.2552000  3
   1491   1489   1488   1495     1  0.0000000  1.0460000  1
   1491   1489   1488   1495     1  0.0000000  0.0000000  3
   1491   1489   1488   1492     1  0.0000000  0.6508444  3
   1492   1488   1489   1508     1  0.0000000  0.6508444  3
   1492   1488   1495   1497     1  0.0000000  0.6973333  3
   1492   1488   1486   1506     1  0.0000000  1.0460000  1
   1492   1488   1486   1506     1  0.0000000  0.0000000  3
   1492   1488   1486   1505     1  0.0000000  0.6508444  3
   1493   1490   1494   1504     1  0.0000000  0.6973333  3
   1493   1490   1489   1508     1  0.0000000  0.6508444  3
   1495   1488   1486   1505     1  0.0000000  1.0460000  1
   1495   1488   1486   1505     1  0.0000000  0.0000000  3
   1496   1485   1486   1505     1  0.0000000  0.6508444  3
   1499   1496   1501   1502     1  0.0000000  0.6973333  3
   1499   1496   1485   1503     1  0.0000000  1.0460000  1
   1499   1496   1485   1503     1  0.0000000  0.0000000  3
   1500   1496   1501   1502     1  0.0000000  0.6973333  3
   1500   1496   1485   1503     1  0.0000000  1.0460000  1
   1500   1496   1485   1503     1  0.0000000  0.0000000  3
   1503   1490   1494   1504     1  0.0000000  0.6973333  3
   1503   1485   1486   1505     1  0.0000000  1.0460000  1
   1503   1485   1486   1505     1  0.0000000  0.0000000  3
   1505   1486   1506   1507     1  0.0000000  0.6973333  3
     33     44     64     65     4  180.0000771  4.6024000  2
     34     69     89     90     4  180.0000771  4.6024000  2
     35     94    114    115     4  180.0000771  4.6024000  2
     36    119    139    140     4  180.0000771  4.6024000  2
     60    144    164    165     4  180.0000771  4.6024000  2
     61    169    189    190     4  180.0000771  4.6024000  2
     85    194    214    215     4  180.0000771  4.6024000  2
     86    219    239    240     4  180.0000771  4.6024000  2
    110    244    264    265     4  180.0000771  4.6024000  2
    111    269    289    290     4  180.0000771  4.6024000  2
    135    294    314    315     4  180.0000771  4.6024000  2
    136    319    339    340     4  180.0000771  4.6024000  2
    160    343    341    342     4  180.0000771  4.6024000  2
    161    416    414    415     4  180.0000771  4.6024000  2
    185    489    487    488     4  180.0000771  4.6024000  2
    186    562    560    561     4  180.0000771  4.6024000  2
    210    635    633    634     4  180.0000771  4.6024000  2
    211    708    706    707     4  180.0000771  4.6024000  2
    235    781    779    780     4  180.0000771  4.6024000  2
    236    854    852    853     4  180.0000771  4.6024000  2
    260    927    925    926     4  180.0000771  4.6024000  2
    261   1000    998    999     4  180.0000771  4.6024000  2
    285   1073   1071   1072     4  180.0000771  4.6024000  2
    286   1146   1144   1145     4  180.0000771  4.6024000  2
    310   1219   1217   1218     4  180.0000771  4.6024000  2
    311   1292   1290   1291     4  180.0000771  4.6024000  2
    335   1365   1363   1364     4  180.0000771  4.6024000  2
    336   1438   1436   1437     4  180.0000771  4.6024000  2

;[ system ]
;; Name
;Generic title
;
;[ molecules ]
;; Compound       #mols
;system1              1
